LAMMPS data file via write_data, version 29 Aug 2024, timestep = 0, units = real

7050 atoms
2 atom types
4700 bonds
1 bond types
2350 angles
1 angle types

0 40 xlo xhi
0 40 ylo yhi
0 240 zlo zhi

Masses

1 12.0107
2 15.9994

Pair Coeffs # lj/cut/coul/long/omp

1 0.0536545 2.8
2 0.156989 3.05

Bond Coeffs # harmonic/omp

1 1028.27 1.16

Angle Coeffs # harmonic/omp

1 55.96 180

Atoms # full

6900 2300 2 -0.35 13.303186039771063 17.38323359528847 9.229873957004076 0 0 0
6899 2300 2 -0.35 11.567684792770333 16.037954787873158 9.978649681462116 0 0 0
6898 2300 1 0.7 12.435449368913387 16.710510592388406 9.604153716223733 0 0 0
6917 2306 2 -0.35 17.686565794177334 6.345774005132663 32.6771600745633 0 0 0
6897 2299 2 -0.35 17.216192287747 9.320860104767851 31.526546574957887 0 0 0
6896 2299 2 -0.35 15.175469866190356 8.345618830490974 32.045500761688615 0 0 0
6895 2299 1 0.7 16.198711204510705 8.828238700464842 31.78807650895206 0 0 0
6916 2306 1 0.7 18.38463963711725 5.470349267944188 32.98172201366566 0 0 0
6909 2303 2 -0.35 10.333169751594514 19.928854392392356 37.82932896720667 0 0 0
6919 2307 1 0.7 7.763631720379657 0.9876849497607296 46.53039506597058 0 0 0
6920 2307 2 -0.35 7.4226042056253485 1.468449956841932 47.52933943290582 0 0 0
6921 2307 2 -0.35 8.101512734290505 0.5046733210995501 45.53069433878517 0 0 0
6903 2301 2 -0.35 11.318879112055543 1.2103124248459909 43.827985505297875 0 0 0
6902 2301 2 -0.35 10.642507532924585 2.174701299607288 45.82719735210311 0 0 0
6901 2301 1 0.7 10.979135112518621 1.6913491569128398 44.82723595728708 0 0 0
6915 2305 2 -0.35 1.2886852057426343 16.133551039093735 48.71029535189196 0 0 0
6914 2305 2 -0.35 1.0717927146269317 16.69621806356404 46.469992913078926 0 0 0
6913 2305 1 0.7 1.1810545906550525 16.415274136496766 47.59016518692547 0 0 0
76 26 1 0.7 3.750877093713778 5.82317026275526 81.94448461047719 0 0 0
77 26 2 -0.35 4.70667029078526 5.357269715024162 82.41034866492178 0 0 0
78 26 2 -0.35 2.791249492882017 6.279486240023115 81.47751529301622 0 0 0
232 78 1 0.7 5.108149509997789 3.1363312596554693 80.39105695456385 0 0 0
233 78 2 -0.35 4.743458341764106 3.9566010545754478 79.65594110982656 0 0 0
234 78 2 -0.35 5.472112148794331 2.3175953683120674 81.1285723131674 0 0 0
1692 564 2 -0.35 8.90393926532393 8.6229455525933 80.91514485081406 0 0 0
1691 564 2 -0.35 6.8200078620094615 8.209683189009013 81.85137507251864 0 0 0
1690 564 1 0.7 7.865567971617724 8.412017527798914 81.38804464800297 0 0 0
1483 495 1 0.7 1.192728238906797 3.554924928940382 81.70790239633166 0 0 0
1484 495 2 -0.35 2.300607519365431 3.207228076436315 81.67434092485317 0 0 0
6906 2302 2 -0.35 2.6051314018094116 9.770129748655878 81.64058166703103 0 0 0
6905 2302 2 -0.35 1.0113857922222549 8.620731937871193 82.87761263656817 0 0 0
6904 2302 1 0.7 1.8126523506373284 9.193313731185695 82.262370550914 0 0 0
586 196 1 0.7 8.721725442994355 8.711608320346778 85.08322557168506 0 0 0
588 196 2 -0.35 8.514879996310684 9.424886043616906 84.19128946868081 0 0 0
702 234 2 -0.35 4.279035471410776 5.202924088899965 85.64497302859829 0 0 0
904 302 1 0.7 7.481476703324046 2.856222246122131 83.26950132959699 0 0 0
905 302 2 -0.35 7.0841919513433025 1.9828320507725672 83.92310608508586 0 0 0
906 302 2 -0.35 7.869108785533594 3.7306619198192106 82.61130075662464 0 0 0
1216 406 1 0.7 3.9904293315182233 1.2029041458975438 83.51098381380257 0 0 0
1258 420 1 0.7 5.020531448241609 7.867188781063598 84.35998041651918 0 0 0
1259 420 2 -0.35 6.040590233212595 7.731466903698065 84.89610323527077 0 0 0
1260 420 2 -0.35 3.9978094845277354 7.995225802131048 83.82699659671995 0 0 0
1445 482 2 -0.35 7.783435304878653 5.17992614410845 85.44035768036359 0 0 0
3906 1302 2 -0.35 0.7116916009255339 2.1921729640784315 84.30913463782912 1 0 0
3212 1071 2 -0.35 0.6167520527946692 0.5946696392289603 81.51636874777273 0 1 0
3831 1277 2 -0.35 1.277621353723014 5.49591050649458 84.23717111017537 1 0 0
3829 1277 1 0.7 0.21817035953249858 5.9709671837743095 84.2701527348076 1 0 0
3928 1310 1 0.7 0.4509373184086736 9.394413463720204 85.79096654590442 1 0 0
1217 406 2 -0.35 4.053798917278857 2.15808578765166 84.1669841065031 0 0 0
3904 1302 1 0.7 0.21569316320708037 2.422899065906156 85.33384595817799 1 0 0
1485 495 2 -0.35 0.09052251189676898 3.916464581287527 81.74637816866286 0 0 0
1218 406 2 -0.35 3.9183285030206245 0.24111580649422473 82.86557324735476 0 0 0
351 117 2 -0.35 9.582341084380568 2.6435389659744337 85.67796552934523 0 0 0
193 65 1 0.7 13.825209072082956 2.1180675222884133 83.23231053908351 0 0 0
194 65 2 -0.35 13.105382268070027 2.2565537507902036 82.33246390993048 0 0 0
195 65 2 -0.35 14.547864310548526 1.9795951959260674 84.13151714928847 0 0 0
1324 442 1 0.7 16.18450775167909 8.725771197207864 84.33280664456575 0 0 0
1468 490 1 0.7 13.61311207213713 5.914553424464072 83.05154774259479 0 0 0
1469 490 2 -0.35 12.862608462009362 6.787545581897735 83.19619391062706 0 0 0
1470 490 2 -0.35 14.35395271993184 5.032724643629363 82.90510971021266 0 0 0
1519 507 1 0.7 16.70590080354344 3.3759453201251084 81.44917533682003 0 0 0
1520 507 2 -0.35 16.318064085257646 2.305902959566244 81.67597079749699 0 0 0
1521 507 2 -0.35 17.092321227574033 4.445621607992176 81.22045850185187 0 0 0
1590 530 2 -0.35 15.170759952364136 5.0832209958795636 85.87196624881838 0 0 0
1326 442 2 -0.35 16.381737965068876 9.761612346228127 84.8205812088585 0 0 0
349 117 1 0.7 10.633765629084646 2.234281630259741 85.40428609309667 0 0 0
350 117 2 -0.35 11.691528984136133 1.839337638386483 85.13452819334314 0 0 0
367 123 1 0.7 10.104554726496096 5.57887589766514 83.40107164342362 0 0 0
368 123 2 -0.35 10.737776556869104 4.623635945662825 83.58771333615928 0 0 0
369 123 2 -0.35 9.482930412057666 6.541283528378007 83.21447566953984 0 0 0
490 164 1 0.7 12.538377601075926 9.529829733767105 84.30079013381459 0 0 0
492 164 2 -0.35 13.474492938200166 9.748216071126718 83.6499259976309 0 0 0
1170 390 2 -0.35 17.772893581206915 0.693186171680168 84.06931549100901 0 0 0
1325 442 2 -0.35 15.990085665013952 7.686399001090242 83.85216106833458 0 0 0
1588 530 1 0.7 16.029348785000426 4.609286884932914 85.25112312948228 0 0 0
1589 530 2 -0.35 16.888242894257914 4.130241562168327 84.63408808203435 0 0 0
491 164 2 -0.35 11.605272653367585 9.30091374011629 84.95374562283259 0 0 0
418 140 1 0.7 10.495898059734696 0.7211705137420672 81.70397422469443 0 0 0
419 140 2 -0.35 9.977087639404647 1.3687204874834573 82.5160278628824 0 0 0
4901 1634 2 -0.35 0.018331528105957992 17.212253839623106 137.8519913439463 1 0 0
420 140 2 -0.35 11.004935327879947 0.08258649469931838 80.87949824117571 0 0 0
1365 455 2 -0.35 4.8721604126192615 19.197880277562813 82.39821515348966 0 0 0
376 126 1 0.7 8.856016680203332 18.61176572042338 83.18832264442483 0 0 0
377 126 2 -0.35 8.379746016917375 18.909922647376135 82.17297570112177 0 0 0
378 126 2 -0.35 9.322080782880455 18.30777784805829 84.20733823971146 0 0 0
415 139 1 0.7 6.584097623069803 11.188876685350344 82.86427621533815 0 0 0
416 139 2 -0.35 5.796517848814147 10.926018040077304 83.67592161213175 0 0 0
417 139 2 -0.35 7.369200723604655 11.439596642568702 82.04656487719072 0 0 0
3756 1252 2 -0.35 3.233784910934197 16.6165027107758 84.01578383008778 1 0 0
1345 449 1 0.7 7.086609468456116 14.93730864792431 83.01452716065194 0 0 0
1346 449 2 -0.35 6.245787465548243 14.158983378911206 83.19647961268643 0 0 0
1347 449 2 -0.35 7.937825607634644 15.70750195894728 82.84213490384393 0 0 0
1363 455 1 0.7 5.1658549927489945 18.12930394736641 82.05292648088005 0 0 0
1364 455 2 -0.35 5.458660962337823 17.063812411694578 81.69848796037928 0 0 0
547 183 1 0.7 6.264731496279085 18.050011966909853 85.8592758519394 0 0 0
548 183 2 -0.35 6.281946258493676 17.428546796521452 84.87893644740493 0 0 0
749 250 2 -0.35 8.609896285036983 12.443141576000066 84.88248844262023 0 0 0
967 323 1 0.7 3.061064216442793 12.043869802528203 84.34244543285882 0 0 0
968 323 2 -0.35 2.7310801301504783 10.950179655288135 84.55016240154552 0 0 0
969 323 2 -0.35 3.39148688293063 13.135361762829202 84.12597509733583 0 0 0
4137 1379 2 -0.35 0.709124494488069 18.716320548072797 84.94318059898752 1 0 0
3755 1252 2 -0.35 1.4895087442961439 15.692193613908657 85.23947835146014 1 0 0
3754 1252 1 0.7 2.3685482362905415 16.14907749993617 84.63276671966963 1 0 0
2820 940 2 -0.35 3.8045815813178834 19.698671044187172 85.22369800286384 0 0 0
3720 1240 2 -0.35 0.3211185499966263 13.016088907137759 83.87101980343246 1 0 0
1640 547 2 -0.35 10.238962946961616 11.709872281391874 80.23505442863215 0 0 0
1473 491 2 -0.35 9.813238541528525 15.334282345891452 85.26364060269798 0 0 0
166 56 1 0.7 16.43788481303412 12.6826697916974 83.7460543465536 0 0 0
168 56 2 -0.35 16.97451086115595 12.275802748225704 82.80136969885365 0 0 0
171 57 2 -0.35 13.270173334893402 18.587724412448313 80.86419558014077 0 0 0
925 309 1 0.7 13.13276455580875 13.671056547031837 83.80279216834516 0 0 0
926 309 2 -0.35 12.920211521419787 14.553642384068157 84.5269609739936 0 0 0
927 309 2 -0.35 13.342409677400289 12.801811827033541 83.06354053024899 0 0 0
1222 408 1 0.7 15.794922259576014 16.41615712045857 82.59325342742419 0 0 0
1223 408 2 -0.35 15.23534550764648 15.398715480374602 82.59785888666518 0 0 0
1224 408 2 -0.35 16.35372543214016 17.432995873784783 82.58004544213651 0 0 0
1450 484 1 0.7 10.765420832353865 15.31952801705437 82.34742934404122 0 0 0
1451 484 2 -0.35 11.01432481326376 16.453047473810823 82.32500425542567 0 0 0
1452 484 2 -0.35 10.531855059948217 14.182456800277954 82.36944061970966 0 0 0
1639 547 1 0.7 10.426292755347387 11.313781375734267 81.30937912282718 0 0 0
1641 547 2 -0.35 10.618540480217288 10.920088038272523 82.38434547650915 0 0 0
167 56 2 -0.35 15.902036308822334 13.088007019621317 84.69369066679994 0 0 0
748 250 1 0.7 9.765584633819868 12.396230646766357 84.98889560462746 0 0 0
750 250 2 -0.35 10.919810534052566 12.351510993484363 85.0984555882539 0 0 0
900 300 2 -0.35 15.202706664222918 16.04613892192594 85.85008795683487 0 0 0
1282 428 1 0.7 12.758706857914301 17.58967160161559 84.8710587566659 0 0 0
1283 428 2 -0.35 12.097759564971275 17.412143682641812 85.80837676563674 0 0 0
1284 428 2 -0.35 13.420383313569893 17.77325499051791 83.93553548306406 0 0 0
169 57 1 0.7 12.490643974919916 19.123769309462308 81.53633810756209 0 0 0
170 57 2 -0.35 11.705608913469844 19.651511298997985 82.21044413421673 0 0 0
2013 671 2 -0.35 16.012060241310618 19.34327079141505 84.96587027333187 0 0 0
2011 671 1 0.7 15.541891931104331 19.928813216816916 84.08085732290894 0 0 0
4850 1617 2 -0.35 18.307859057419734 15.078357490758032 83.92340669661476 0 0 0
394 132 1 0.7 3.5832349923056706 7.8478336765388175 87.51488522660806 0 0 0
395 132 2 -0.35 3.217950888813616 6.896309718852685 88.07118132891094 0 0 0
396 132 2 -0.35 3.960427224246578 8.785950574263461 86.94504777642153 0 0 0
445 149 1 0.7 6.992101913358936 1.6392307646080786 86.84024057985124 0 0 0
446 149 2 -0.35 6.595947537951796 2.730965942970591 86.85107375616413 0 0 0
587 196 2 -0.35 8.931461108266813 8.00117725178037 85.97787439782385 0 0 0
700 234 1 0.7 3.4997094563655877 4.4320267634473876 86.02774350630146 0 0 0
701 234 2 -0.35 2.7113397460010216 3.6698870824696668 86.40928376504156 0 0 0
1444 482 1 0.7 7.265872735926102 5.51580666827341 86.42370528821618 0 0 0
1446 482 2 -0.35 6.763137318444735 5.853914674331281 87.4143609732284 0 0 0
3929 1310 2 -0.35 1.0094462297023612 8.402743293345871 86.02590084289952 1 0 0
447 149 2 -0.35 7.388928000534524 0.5479274886739498 86.83322805717712 0 0 0
272 91 2 -0.35 6.088487996603387 8.332359523929242 89.07166878582929 0 0 0
550 184 1 0.7 8.393602483382546 3.68222250396065 89.43378634994261 0 0 0
551 184 2 -0.35 7.7539973784938265 4.403850189836556 90.07957350229071 0 0 0
552 184 2 -0.35 9.036864312442507 2.965417521628531 88.78654047061328 0 0 0
751 251 1 0.7 4.733420235589483 4.863581938288283 89.67171708480615 0 0 0
752 251 2 -0.35 4.9251453232096845 5.6698888208997085 90.48427700018486 0 0 0
753 251 2 -0.35 4.531844764371633 4.049220206624646 88.87008669921109 0 0 0
271 91 1 0.7 7.247254776091444 8.382246886018244 89.10102657240526 0 0 0
25 9 1 0.7 3.0032643700542274 4.068244001475388 92.53584870333864 0 0 0
26 9 2 -0.35 3.4155306838108506 4.348417092940243 93.58356894469539 0 0 0
27 9 2 -0.35 2.6008295223869737 3.7770674692787654 91.4871108440275 0 0 0
223 75 1 0.7 6.457903392316629 3.814978324930707 92.7248644937344 0 0 0
224 75 2 -0.35 5.734082242605499 3.148270501488559 92.10874080193213 0 0 0
225 75 2 -0.35 7.175883594920132 4.493569933615056 93.33296289316999 0 0 0
313 105 1 0.7 5.3504236433616486 0.9832932967026252 90.10533942491912 0 0 0
315 105 2 -0.35 6.320553156756655 1.459893872256857 89.68001923427633 0 0 0
475 159 1 0.7 2.9071429723423368 7.71845831639645 91.24414115148012 0 0 0
476 159 2 -0.35 3.426107244760853 8.604493334754098 90.70274324982354 0 0 0
477 159 2 -0.35 2.3828934006081495 6.830789127115195 91.77733068132387 0 0 0
1138 380 1 0.7 5.75309795682454 8.056836766000892 93.5434887519637 0 0 0
1139 380 2 -0.35 5.1676698604614755 7.054475262151907 93.54793699486386 0 0 0
1140 380 2 -0.35 6.340814719195457 9.057944385697747 93.54738043342029 0 0 0
1694 565 2 -0.35 7.674309458219254 7.044382970177848 91.69567587793243 0 0 0
1366 456 1 0.7 1.2337641341233923 3.15406765266066 88.95134070554127 0 0 0
1367 456 2 -0.35 1.5881054148406226 2.048933639426535 88.9164651451423 0 0 0
1368 456 2 -0.35 0.8862014953625774 4.262012661884484 88.97923558511222 0 0 0
1693 565 1 0.7 8.717952806015273 6.593834017548658 91.92914853183572 0 0 0
1554 518 2 -0.35 0.4075401443240547 7.65138988282738 89.3209922727073 0 0 0
278 93 2 -0.35 3.253471048766248 9.648468387412276 93.58315702575311 0 0 0
519 173 2 -0.35 9.185684298482895 9.70925450306833 92.0237195051363 0 0 0
2492 831 2 -0.35 2.754163626999342 1.1779742419494712 93.58471622548872 0 1 0
2491 831 1 0.7 3.749646467280207 1.4619738570183207 94.10969532745384 0 1 0
273 91 2 -0.35 8.405993128896114 8.449960753805371 89.1343004028186 0 0 0
743 248 2 -0.35 1.7066163582790619 10.329499480847204 88.41392479325394 0 0 0
314 105 2 -0.35 4.381743048498846 0.5052594307842455 90.53127597118491 0 0 0
1999 667 1 0.7 3.269712788912802 0.5738940434897404 86.85167252693435 0 1 0
257 86 2 -0.35 0.27430891369946325 4.562923504010124 93.46590908134885 0 0 0
2000 667 2 -0.35 2.277232310096226 0.41777720136767055 86.270514186897 0 1 0
2001 667 2 -0.35 4.275245208225977 0.7383779719377458 87.406841284083 0 1 0
3422 1141 2 -0.35 6.805326186133717 0.03383304580506424 92.45559004234768 0 1 0
308 103 2 -0.35 18.460555993693124 4.978976229880948 94.40486081813444 0 0 0
453 151 2 -0.35 9.942409704998694 5.781494825207066 87.8973486066555 0 0 0
187 63 1 0.7 15.59450105385631 1.1553636782182983 87.03679800284439 0 0 0
189 63 2 -0.35 15.000918784919557 2.1092021187414955 87.32861994462984 0 0 0
443 148 2 -0.35 18.351221496326687 2.5448715247765628 86.90909395094587 0 0 0
451 151 1 0.7 10.727799222421957 5.994484688858044 87.06919594600662 0 0 0
452 151 2 -0.35 11.509610443346308 6.209926967556244 86.23885325400718 0 0 0
895 299 1 0.7 14.079119596752783 7.375466233249452 87.3319554623692 0 0 0
896 299 2 -0.35 13.932846512281852 6.700789883703722 88.26622188142579 0 0 0
897 299 2 -0.35 14.228343363933659 8.053114900850892 86.40183392426972 0 0 0
912 304 2 -0.35 11.362723570628432 9.024264341576284 88.07867859012393 0 0 0
1002 334 2 -0.35 12.076173198875468 3.4719739093964765 87.71827017062495 0 0 0
1463 488 2 -0.35 18.042106381364277 6.724917208319491 86.16905453916988 0 0 0
1526 509 2 -0.35 16.614918009993968 4.570980381549999 88.67169653934273 0 0 0
188 63 2 -0.35 16.201350617727872 0.2118779054213689 86.7414587071164 0 0 0
2504 835 2 -0.35 10.447778594178438 0.4385217592007187 87.79640379484435 0 1 0
910 304 1 0.7 10.592826178291379 9.804984227876634 87.69493879036511 0 0 0
1695 565 2 -0.35 9.764932310977933 6.142233886384928 92.14633208771193 0 0 0
769 257 1 0.7 16.224539650465182 7.239992731196943 90.28817324307344 0 0 0
771 257 2 -0.35 16.689185841798423 7.74930050705996 89.35477867454357 0 0 0
1000 334 1 0.7 12.070790029532532 2.8458927239296052 88.69581194798651 0 0 0
1001 334 2 -0.35 12.056034965609605 2.2212348332873812 89.67451611530994 0 0 0
1525 509 1 0.7 15.616619456527959 4.268950473299313 89.18154597098025 0 0 0
1527 509 2 -0.35 14.62706710975372 3.9714732262406005 89.70851450617057 0 0 0
17 6 2 -0.35 14.175784403336172 9.63181103613974 89.29726985689223 0 0 0
1578 526 2 -0.35 14.427701467121894 0.20835617035820025 89.82698101842337 0 0 0
145 49 1 0.7 15.843341612600105 4.030130904643443 92.76394214920718 0 0 0
147 49 2 -0.35 15.041871848649874 4.3310464032100535 93.54669899721242 0 0 0
770 257 2 -0.35 15.76026775195887 6.704686878525078 91.20705777246391 0 0 0
1053 351 2 -0.35 16.023524413004203 1.4715919863331692 94.39630642325098 0 0 0
1087 363 1 0.7 12.304837732661479 6.284156501959802 90.70464307712811 0 0 0
1088 363 2 -0.35 11.901898264893479 5.276108476516035 90.29367454832389 0 0 0
1089 363 2 -0.35 12.70197744551574 7.299114750082868 91.103457388516 0 0 0
1432 478 1 0.7 10.853440544903545 3.2768624047169785 92.38595182521844 0 0 0
1433 478 2 -0.35 11.806104126865787 3.60580698978729 92.96054128637462 0 0 0
1434 478 2 -0.35 9.902016967418442 2.934451127664647 91.81583193561008 0 0 0
1536 512 2 -0.35 16.201673130279033 9.903540178221187 91.73515473330083 0 0 0
1576 526 1 0.7 14.399508735558335 0.865596752273223 90.78315654306697 0 0 0
1577 526 2 -0.35 14.369425425833727 1.5275802424787328 91.73659492827157 0 0 0
1624 542 1 0.7 12.607346575364268 9.481704690660406 93.56657693519526 0 0 0
1625 542 2 -0.35 11.642930581063165 8.84493919209165 93.66891066358689 0 0 0
1534 512 1 0.7 16.463465622933505 10.167289297205242 92.83505454683886 0 0 0
1535 512 2 -0.35 16.719355427721492 10.436415924230683 93.93500234586497 0 0 0
146 49 2 -0.35 16.653283393441377 3.728624781966034 91.98766122517235 0 0 0
4124 1375 2 -0.35 17.23068496158148 1.4686522283743317 89.67750211685018 0 0 0
6646 2216 1 0.7 18.538080156192006 0.23958229801103 93.4996303116969 0 1 0
2286 762 2 -0.35 11.286969371644439 0.35371294393336145 93.66739421684493 0 1 0
6647 2216 2 -0.35 18.54236339782986 0.7875489946225058 92.4761466469403 0 1 0
4123 1375 1 0.7 18.16892203168615 2.1355612705520564 89.82916887718353 0 0 0
2284 762 1 0.7 11.48878753007287 0.005328644701335166 92.57839252240727 0 1 0
2503 835 1 0.7 9.82987062002648 0.17003969471614677 88.74179144860118 0 1 0
65 22 2 -0.35 18.610320463661722 8.188801700590464 92.82312231440802 0 0 0
155 52 2 -0.35 6.67479189597456 10.243351447871394 86.6976075121648 0 0 0
154 52 1 0.7 5.842491010925549 11.050228232173437 86.63220438246802 0 0 0
156 52 2 -0.35 5.02346770658104 11.870992615898793 86.57596145441458 0 0 0
361 121 1 0.7 5.57796855324191 14.765699887153604 86.30130486901577 0 0 0
362 121 2 -0.35 4.439798610309003 14.973317889090085 86.3765239423376 0 0 0
363 121 2 -0.35 6.7203751178579605 14.571813785409981 86.23194418042591 0 0 0
549 183 2 -0.35 6.259689809421279 18.658322011585167 86.84705070257456 0 0 0
744 248 2 -0.35 1.140280159076042 10.773539932446923 90.62081501892429 0 0 0
868 290 1 0.7 8.293774996589956 13.117602501368063 88.28197767301515 0 0 0
869 290 2 -0.35 9.268354113634985 13.658058890274248 87.95768268948797 0 0 0
3009 1003 2 -0.35 3.041056811403178 17.559115760779264 87.30385799237938 0 0 0
1471 491 1 0.7 9.334791331846255 16.035436451083335 86.055317182094 0 0 0
1537 513 1 0.7 2.3442138624830546 13.605454305545141 87.89033203985916 0 0 0
1538 513 2 -0.35 1.884273644937212 13.094084531324942 86.95518821164391 0 0 0
1472 491 2 -0.35 8.848179534460517 16.735820313858934 86.84361164324491 0 0 0
3007 1003 1 0.7 2.5099536261184516 18.564090372204465 87.53830710340449 0 0 0
1174 392 1 0.7 5.270481953369203 11.093070721368592 90.31531077634808 0 0 0
1175 392 2 -0.35 4.353351449554789 11.430036755730884 89.68921310039936 0 0 0
1176 392 2 -0.35 6.199406126324473 10.767015758144304 90.93050174980714 0 0 0
3725 1242 2 -0.35 0.05354227587086649 16.91802005007649 92.82026141807474 1 0 0
742 248 1 0.7 1.42146824144005 10.552887521075133 89.51640655936403 0 0 0
870 290 2 -0.35 7.311869092908401 12.58165144626411 88.59496881839885 0 0 0
955 319 1 0.7 5.122838408733514 18.745979028042807 90.16438108973652 0 0 0
956 319 2 -0.35 4.708274935805892 19.47360950479114 89.36077460519779 0 0 0
1481 494 2 -0.35 7.96793896058707 19.7587279004913 89.19932389040275 0 0 0
1539 513 2 -0.35 2.800096158949594 14.116196292266011 88.82855537675329 0 0 0
2 1 2 -0.35 8.522956256205646 14.096820549867186 90.9964079663486 0 0 0
1737 579 2 -0.35 4.279305786116317 14.821147757573739 94.19026582325556 0 0 0
319 107 1 0.7 6.561519627181733 16.81396267865645 93.75713209213308 0 0 0
320 107 2 -0.35 7.077309594602688 16.136636204632552 92.96830408506773 0 0 0
379 127 1 0.7 5.619851371927288 14.620076403742601 90.29080812706724 0 0 0
380 127 2 -0.35 5.399619151613318 13.976209761871388 91.2315548383054 0 0 0
381 127 2 -0.35 5.83427129683969 15.259344369753478 89.34562000307847 0 0 0
1736 579 2 -0.35 2.600436556741972 13.244510341535644 93.88308568140441 0 0 0
1735 579 1 0.7 3.437443688993746 14.035384449208552 94.0338934116351 0 0 0
517 173 1 0.7 9.374047691473107 10.502093616215284 91.19827756342998 0 0 0
595 199 1 0.7 2.480179395545857 16.36616729199957 91.0391946142457 0 0 0
597 199 2 -0.35 2.532027829913039 17.33088018737451 90.39571368806435 0 0 0
691 231 1 0.7 8.945279566896962 17.96206710202308 91.24450090138878 0 0 0
693 231 2 -0.35 8.861753089719594 17.057403030752194 90.52239284209192 0 0 0
1327 443 1 0.7 6.544065880927775 12.121364676537583 93.66310034193197 0 0 0
1328 443 2 -0.35 7.646146514836502 12.31988741656865 93.35512023232704 0 0 0
1329 443 2 -0.35 5.438973077673781 11.93866732376748 93.96878577712188 0 0 0
1387 463 1 0.7 3.3573646789282576 18.7234631180263 94.50812052815634 0 0 0
1388 463 2 -0.35 3.0254726927315665 17.916148805893627 93.7421895260136 0 0 0
1 1 1 0.7 9.206214776687261 14.482714534130501 91.85197279434827 0 0 0
692 231 2 -0.35 9.032536917767672 18.866970979883725 91.96564262066397 0 0 0
957 319 2 -0.35 5.530128769236822 18.010424736650066 90.9660259967276 0 0 0
1636 546 1 0.7 0.23756088564850525 19.270133073091245 90.20704653323588 0 0 0
596 199 2 -0.35 2.432306781318397 15.401077018456622 91.68087040107173 0 0 0
3008 1003 2 -0.35 1.9651175249624178 19.559800866994813 87.78038027551594 0 0 0
4781 1594 2 -0.35 0.5666813017056196 19.839149229595023 94.32904893855103 1 0 0
6997 2333 1 0.7 9.27529610003511 15.34783463267306 225.97592879292387 0 0 0
911 304 2 -0.35 9.815803837831785 10.581235824614962 87.31796059192408 0 0 0
199 67 1 0.7 14.932625304852884 11.456775319426148 86.91566633237844 0 0 0
200 67 2 -0.35 15.925620058973374 11.723093345150918 87.45520239472876 0 0 0
201 67 2 -0.35 13.938768745391279 11.19375482513907 86.37701581210601 0 0 0
898 300 1 0.7 14.923302617181923 15.335108939048368 86.72407478889987 0 0 0
899 300 2 -0.35 14.640270822200627 14.62834232708729 87.60109843079792 0 0 0
938 313 2 -0.35 17.120538253819316 17.719825344920903 87.49600254904453 0 0 0
937 313 1 0.7 18.01266473070404 17.74173210021497 86.75435174501258 0 0 0
1334 445 2 -0.35 10.890946841732239 18.283401527915967 88.66363948388907 0 0 0
248 83 2 -0.35 17.8988083594441 14.70520186053532 87.17606260061201 0 0 0
1626 542 2 -0.35 13.572931130635704 10.120118421745982 93.47439441867614 0 0 0
518 173 2 -0.35 9.562716645528917 11.284851458663768 90.36215555158785 0 0 0
18 6 2 -0.35 12.464652171544731 10.334307038621557 90.70074341058869 0 0 0
16 6 1 0.7 13.325399393342487 9.984021616214982 90.00458731641974 0 0 0
553 185 1 0.7 15.019273003295888 18.138924365632132 89.39486438949946 0 0 0
554 185 2 -0.35 14.195334795819852 17.739418382727113 88.68032289924443 0 0 0
555 185 2 -0.35 15.835476030689453 18.515878859518686 90.12882483308101 0 0 0
946 316 1 0.7 11.877684441303957 13.072572450316326 89.4519262575464 0 0 0
947 316 2 -0.35 12.10786378892228 12.410425501732169 88.52678872761342 0 0 0
948 316 2 -0.35 11.654360119782188 13.724730197930377 90.38613466995105 0 0 0
1333 445 1 0.7 11.19269536062588 17.16820250423974 88.54780964296866 0 0 0
1335 445 2 -0.35 11.495261493785561 16.052637621366603 88.43853860873122 0 0 0
1510 504 1 0.7 15.688692814637198 13.174816772714404 90.11742165011367 0 0 0
1511 504 2 -0.35 14.707910714995483 12.579249787440165 90.29148889436375 0 0 0
1512 504 2 -0.35 16.668360234258667 13.77509101254499 89.95129284580938 0 0 0
3 1 2 -0.35 9.889343852588677 14.864450896781841 92.70977451964411 0 0 0
172 58 1 0.7 13.054394440952594 16.818282684122376 94.40328899055203 0 0 0
174 58 2 -0.35 13.50036113807467 17.768327319631467 93.90805157848371 0 0 0
520 174 1 0.7 17.985172470032794 16.370891602245322 90.7312166289468 0 0 0
521 174 2 -0.35 17.287545865656217 16.31126217366174 91.65715825981765 0 0 0
616 206 1 0.7 13.007299870801175 16.209196773330397 91.2762192159435 0 0 0
617 206 2 -0.35 14.03224891722403 15.669571449061278 91.19625082249613 0 0 0
618 206 2 -0.35 11.99042952124718 16.7615356497717 91.36297993180118 0 0 0
661 221 1 0.7 10.468106248451496 12.546557996406813 94.40191399583708 0 0 0
663 221 2 -0.35 10.924503132291665 12.017298830177333 93.4747340009065 0 0 0
1183 395 1 0.7 17.815675642546587 18.87903219902416 93.22246374274607 0 0 0
1184 395 2 -0.35 18.0644520727011 19.32491567729739 92.17964538647793 0 0 0
1185 395 2 -0.35 17.574155190958983 18.418168861827752 94.25977926514982 0 0 0
1281 427 2 -0.35 11.729467525250302 0.10187523497337846 146.3802152112297 0 0 0
2373 791 2 -0.35 14.13052424870893 19.929146725025237 120.58865966470262 0 0 0
2371 791 1 0.7 13.812537290685981 19.810858147679525 121.69929459560562 0 0 0
1678 560 1 0.7 16.135990114681615 14.468397432471255 93.65107465134834 0 0 0
1680 560 2 -0.35 16.607483124374294 13.59922104315233 93.04127488031055 0 0 0
3429 1143 2 -0.35 13.400496785768016 19.659502485282676 91.47230686505381 0 0 0
247 83 1 0.7 18.62351986337169 14.062865187102295 87.81694657954158 0 0 0
522 174 2 -0.35 18.689814976101744 16.432466069795854 89.81062601007768 0 0 0
600 200 2 -0.35 18.184285004385565 10.640105485302243 89.33617975796345 0 0 0
686 229 2 -0.35 7.460234494856631 0.5600359255945057 99.71708145454717 0 0 0
57 19 2 -0.35 2.272299355771504 3.0642909317253446 96.37527850994317 0 0 0
301 101 1 0.7 8.938513864750144 8.956148598251332 94.88255732094699 0 0 0
302 101 2 -0.35 8.916341281874095 7.83113124916014 94.59631920645572 0 0 0
1716 572 2 -0.35 2.4531496229787573 6.831423241275921 95.06130575094429 0 0 0
1714 572 1 0.7 3.2025652521107855 6.283529755312008 95.75730625141884 0 0 0
1420 474 1 0.7 6.938585248146076 5.07208980049269 96.31771026133787 0 0 0
1421 474 2 -0.35 6.853090399495524 3.914611096502406 96.30569930874786 0 0 0
1627 543 1 0.7 8.929799725517638 1.8740331990011942 95.46166202343925 0 0 0
2493 831 2 -0.35 4.744303421163208 1.7650413509869347 94.62458001515219 0 1 0
1628 543 2 -0.35 8.49615983038817 1.752008063826263 94.39229694261947 0 0 0
3891 1297 2 -0.35 0.8519412981294933 5.512590686737094 98.73273362325848 1 0 0
55 19 1 0.7 1.7602883590769447 2.667949111890293 97.3387479756145 0 0 0
423 141 2 -0.35 5.036457055173218 8.752854588704784 96.2942638181747 0 0 0
1715 572 2 -0.35 3.952834141019056 5.75006781510595 96.46558091476042 0 0 0
1422 474 2 -0.35 7.023791393192902 6.230086768153914 96.33456840336362 0 0 0
1454 485 2 -0.35 2.333034078518849 8.247756688290316 97.82224760570759 0 0 0
421 141 1 0.7 5.143220438162628 8.4357646374517 97.40594381629879 0 0 0
422 141 2 -0.35 5.252715280632442 8.11855679494506 98.51626872783939 0 0 0
647 216 2 -0.35 4.551826536884055 1.6380188916274607 97.94991700407422 0 0 0
772 258 1 0.7 2.499880398671009 3.3794156506996655 102.59138425873648 0 0 0
773 258 2 -0.35 1.8667494173233103 2.409168338437587 102.66743781382027 0 0 0
774 258 2 -0.35 3.137789438698216 4.346842584746169 102.51760039084151 0 0 0
970 324 1 0.7 7.06724850509248 6.449984902179207 101.43864271615588 0 0 0
971 324 2 -0.35 8.163452394602382 6.159384811255085 101.68821968608543 0 0 0
972 324 2 -0.35 5.9692445875478946 6.735400738467444 101.19293334982419 0 0 0
1011 337 2 -0.35 7.636730576427528 3.230227691738097 101.37409912108934 0 0 0
1084 362 1 0.7 3.159787517059905 7.264155386962496 101.8563362697271 0 0 0
1085 362 2 -0.35 2.7288418060673747 6.982516329483285 100.81509272043758 0 0 0
1086 362 2 -0.35 3.574839542395017 7.548839099078233 102.90273842346326 0 0 0
1294 432 1 0.7 4.6585070613876844 4.399064752094526 99.24320330517361 0 0 0
1295 432 2 -0.35 3.5151379557080777 4.272526494308754 99.39805121611711 0 0 0
1296 432 2 -0.35 5.8009179801610635 4.522664430639147 99.07869156894937 0 0 0
1453 485 1 0.7 1.4422780772257031 8.517620780340263 98.51412668454928 0 0 0
1579 527 1 0.7 9.067746314756256 7.767567373443946 98.25032962765698 0 0 0
1580 527 2 -0.35 8.253552313738023 7.321900272604682 98.94622594064535 0 0 0
1009 337 1 0.7 8.327008979146646 3.337882332652364 102.30119447139762 0 0 0
646 216 1 0.7 5.516754726122893 1.276704619546153 97.41560003625777 0 0 0
2144 715 2 -0.35 4.644731938754726 1.853057910919656 101.14712301460912 0 1 0
56 19 2 -0.35 1.2323521252305523 2.283162071041467 98.29795736518625 0 0 0
3889 1297 1 0.7 0.6494577650429536 5.09362445232681 99.79645977050119 1 0 0
648 216 2 -0.35 6.4887545866143626 0.9139921272392091 96.89595877343783 0 0 0
3890 1297 2 -0.35 0.43659900575699123 4.683606625301125 100.86112960816287 1 0 0
1455 485 2 -0.35 0.5404421758485803 8.791429809881567 99.19257146441333 0 0 0
685 229 1 0.7 8.585245379386587 0.8453935744726846 99.68425482151679 0 0 0
4103 1368 2 -0.35 0.35497377602034635 8.13888814181312 102.3815779012981 1 0 0
2143 715 1 0.7 4.776675925325594 0.7025182061964842 101.06498349171042 0 1 0
1784 595 2 -0.35 1.8380432862577234 0.012237466751959483 100.64159071155956 0 1 0
259 87 1 0.7 10.687549301754947 5.371948809708634 95.30531231273524 0 0 0