LAMMPS data file via write_data, version 29 Aug 2024, timestep = 200000, units = real

7050 atoms
2 atom types
4700 bonds
1 bond types
2350 angles
1 angle types

0 40 xlo xhi
0 40 ylo yhi
0 240 zlo zhi

Masses

1 12.0107
2 15.9994

Pair Coeffs # lj/cut/coul/long/omp

1 0.0536545 2.8
2 0.156989 3.05

Bond Coeffs # harmonic/omp

1 1028.27 1.16

Angle Coeffs # harmonic/omp

1 55.96 180

Atoms # full

993 331 2 -0.35 2.162856551041563 8.222793742395185 53.364933228147805 -4 -2 1
991 331 1 0.7 3.1571070145796725 7.787807353880055 52.9461549981754 -4 -2 1
992 331 2 -0.35 4.067216631589349 7.2959085446683485 52.42985801416912 -4 -2 1
254 85 2 -0.35 17.896249235317928 0.008159517010850624 161.4296346345473 0 0 0
73 25 1 0.7 19.368870154016896 3.9917577950142102 167.64799414965412 -1 0 0
2707 903 1 0.7 9.70123465977985 13.990386171915405 236.8969260388044 2 3 -1
3300 1100 2 -0.35 6.395270109267407 16.16313088696515 68.2124663026878 1 1 1
3298 1100 1 0.7 5.49579762904199 16.6697784321444 67.66036075129718 1 1 1
3299 1100 2 -0.35 4.570946964573931 17.16734112315453 67.11630610404903 1 1 1
6506 2169 2 -0.35 6.148522491504714 9.118851422647275 77.16345514825993 1 1 0
6505 2169 1 0.7 5.069067161922792 8.963541782236568 76.79410904147159 1 1 0
925 309 1 0.7 15.035521287196564 6.698143715419393 77.16375323443695 0 0 0
927 309 2 -0.35 13.97627176918823 6.3896838109169 76.83234444354103 0 0 0
6971 2324 2 -0.35 9.809357096631953 3.6911703813485364 76.29975038231238 1 3 0
6970 2324 1 0.7 10.365789687851786 2.644836733051324 76.34915958881666 1 3 0
6972 2324 2 -0.35 10.874970128530997 1.6054523442517865 76.44699284719614 1 3 0
224 75 2 -0.35 18.985695700013384 3.6670814425489926 77.96430223895442 0 0 0
870 290 2 -0.35 6.812638254146398 12.873376263394384 76.45239674599081 0 0 0
868 290 1 0.7 7.525601234228601 13.256133486385245 77.28213205211316 0 0 0
6302 2101 2 -0.35 0.4213634878297651 18.351595111943052 75.1521863627708 1 0 0
6301 2101 1 0.7 0.8968027528685851 17.46126355539785 74.56308922944547 1 0 0
548 183 2 -0.35 1.7119360149806764 14.023028357617306 75.95013336214757 0 0 0
549 183 2 -0.35 0.19512047548967987 13.090380717318045 74.46929011474813 0 0 0
547 183 1 0.7 0.9532004584892223 13.572353199307603 75.2003608857521 0 0 0
3674 1225 2 -0.35 11.442289472007047 15.851761942470052 75.88761832154589 0 0 0
3673 1225 1 0.7 11.935202442798074 16.02505421819389 76.92374348279154 0 0 0
6363 2121 2 -0.35 6.078971796395224 18.539651074511134 94.86551782441177 1 0 0
2708 903 2 -0.35 9.59528429647162 14.51489894405336 235.8637227773412 2 3 -1
3050 1017 2 -0.35 18.825991555924837 12.587701630927217 77.03339256659278 0 0 0
3049 1017 1 0.7 18.174137401041712 12.035359774105427 76.20764828720453 0 0 0
3051 1017 2 -0.35 17.567720648198556 11.551953910727269 75.3166337317317 0 0 0
6987 2329 2 -0.35 18.16859914237544 17.687233559144705 76.35393762060365 -5 0 1
3622 1208 1 0.7 16.640238586921875 12.457708601749689 72.78502114592595 0 0 0
3675 1225 2 -0.35 12.395815150867913 16.217681170896263 77.97113761780582 0 0 0
3623 1208 2 -0.35 16.557870919556976 11.361070094996265 72.4276795676662 0 0 0
3624 1208 2 -0.35 16.7114274538743 13.571961724527464 73.0787934386666 0 0 0
1271 424 2 -0.35 19.482360174955296 3.601717672172582 143.22630712102315 0 0 0
1297 433 1 0.7 1.719847341904721 9.035503545509311 78.85869720388031 -1 -2 1
1299 433 2 -0.35 1.3468897231911239 10.036152559261618 79.26212329858048 -1 -2 1
1298 433 2 -0.35 2.0295540487086967 8.00051704845805 78.5008305608322 -1 -2 1
5044 1682 1 0.7 5.882768819159773 5.17807070133069 80.08636150606125 0 0 0
5045 1682 2 -0.35 5.683286947124625 4.281857054106709 79.36738212714796 0 0 0
446 149 2 -0.35 8.741929643212389 5.975349574076695 78.43692022820127 0 0 0
1629 543 2 -0.35 6.825500583814104 1.9435580967638382 84.53590476281256 0 0 0
1627 543 1 0.7 6.413664798916746 2.2166366645114643 83.49692078312003 0 0 0
1628 543 2 -0.35 6.050120922356312 2.4553282418413063 82.43272907249766 0 0 0
2433 811 2 -0.35 2.401006461557439 1.5565296295678626 83.16223833341417 0 1 0
2431 811 1 0.7 1.435694665382832 1.294449221117576 82.58411163283914 0 1 0
1339 447 1 0.7 7.941807730167957 7.5356319613888 82.34405687427031 0 0 0
1341 447 2 -0.35 7.1214944100803645 8.303608820229265 82.66234940629867 0 0 0
193 65 1 0.7 3.7092064051661766 3.336749639680365 85.40961665946206 0 0 0
194 65 2 -0.35 4.467356990674491 4.028146483717783 84.87249665850825 0 0 0
5122 1708 1 0.7 4.103570244716298 8.109638341736712 85.03278471095996 1 0 0
1722 574 2 -0.35 2.104890803300651 6.338638331385351 82.03118650774648 0 0 0
1340 447 2 -0.35 8.711940475439913 6.782546542021864 81.88255701300986 0 0 0
5046 1682 2 -0.35 5.97180347915636 6.091547278619025 80.79512970415425 0 0 0
1720 574 1 0.7 2.2140355527971916 5.5436702304129994 81.17822634836486 0 0 0
3249 1083 2 -0.35 9.412623837750688 1.1930699637770272 79.42503606486072 0 1 0
1721 574 2 -0.35 2.4025045116224337 4.79586714105079 80.28622443596015 0 0 0
3247 1083 1 0.7 9.664427613080235 1.0302388146683623 80.54645300923684 0 1 0
445 149 1 0.7 9.897919855959188 5.667450795227768 78.43818803719766 0 0 0
5123 1708 2 -0.35 3.121259661281519 8.56700633852828 84.57887754299558 1 0 0
5124 1708 2 -0.35 5.152386865390594 7.702151630896181 85.4049157465589 1 0 0
6450 2150 2 -0.35 18.468683883163163 0.0008146264632991236 91.87960316077162 0 1 0
2432 811 2 -0.35 0.546150650033564 0.9033536918933688 81.8912813553548 0 1 0
3707 1236 2 -0.35 0.40596864964502644 0.23935296370048975 169.32538979028666 0 0 0
926 309 2 -0.35 16.07149191147954 7.114248910880204 77.51102017902598 0 0 0
3275 1092 2 -0.35 9.59645376446922 4.772734754156829 86.24040951733502 0 0 0
447 149 2 -0.35 11.049923759420437 5.4126225707799005 78.47038853615192 0 0 0
3528 1176 2 -0.35 10.701471194061721 8.784542425795776 78.44746605133122 0 0 0
2961 987 2 -0.35 12.236570507929667 3.0743218091432603 79.93823080365823 0 1 0
2960 987 2 -0.35 13.856783272456283 4.342291370176609 78.84739043891868 0 1 0
2959 987 1 0.7 13.020916608924171 3.71407931069966 79.34918784909596 0 1 0
1692 564 2 -0.35 8.712335928307656 4.054518102642817 81.54380396687529 0 0 0
4233 1411 2 -0.35 17.296176941204315 3.260709422436298 81.94871105374948 0 0 0
4231 1411 1 0.7 16.63540349641036 4.166400099819696 81.67861567034974 0 0 0
3629 1210 2 -0.35 13.079207977257152 0.9774613070260362 83.4180370727303 0 0 0
3628 1210 1 0.7 13.668797610539967 1.5976579451999564 82.63925326194511 0 0 0
3630 1210 2 -0.35 14.35282609251636 2.1394933156735707 81.85824616400315 0 0 0
247 83 1 0.7 16.136259285482563 4.628143064527497 84.91453645614136 0 0 0
1690 564 1 0.7 9.68452317123604 3.7465506893907707 82.09039614138172 0 0 0
1691 564 2 -0.35 10.651811472191193 3.3415745390202445 82.58674947853977 0 0 0
248 83 2 -0.35 15.06988614627022 4.330823735003277 84.51069735629481 0 0 0
554 185 2 -0.35 14.366977517554243 8.90309078133187 78.95331965764454 0 0 0
553 185 1 0.7 14.108035822821293 8.027440668185243 79.64631308572558 0 0 0
4232 1411 2 -0.35 15.961750557884454 5.057937181445383 81.4074230921646 0 0 0
249 83 2 -0.35 17.188900258892865 4.852577511553692 85.31722940210031 0 0 0
2790 930 2 -0.35 12.25099934455459 8.033350564202722 83.53712022738195 0 0 0
2788 930 1 0.7 11.321067768878581 8.706931929596733 83.45590318480191 0 0 0
6883 2295 1 0.7 16.972615988463883 8.019409233602904 81.62014709949 0 1 0
6885 2295 2 -0.35 17.875923626456373 7.829967680564431 80.92433404875646 0 1 0
6884 2295 2 -0.35 16.083581843148163 8.251396160522155 82.35388080504075 0 1 0
588 196 2 -0.35 9.794354393711153 1.3049210576725532 84.89501564536862 0 0 0
555 185 2 -0.35 13.90452740628943 7.14606404108705 80.33634277539348 0 0 0
3402 1134 2 -0.35 19.216234465136814 9.230114533715655 78.07143449759087 0 1 0
1984 662 1 0.7 8.590507279153783 18.719184850491832 149.68923862002453 0 0 0
75 25 2 -0.35 18.924757557056463 5.049062203623441 167.88702390089855 -1 0 0
2274 758 2 -0.35 1.0844201285033992 17.560710677570768 92.78924743570313 0 1 0
225 75 2 -0.35 19.371904667597608 1.7486693966082694 76.76363774194292 0 0 0
223 75 1 0.7 19.256162880119962 2.709591648210089 77.38603809518526 0 0 0
6507 2169 2 -0.35 3.9772903862447873 8.940006547185181 76.3538253014697 1 1 0
6431 2144 2 -0.35 6.685006453494137 11.88238813875933 84.05299118479297 1 1 0
1539 513 2 -0.35 1.152145970146864 16.072795269935888 83.36790863642058 0 0 0
6430 2144 1 0.7 7.392342314046074 11.12742271751242 84.59096461403574 1 1 0
6432 2144 2 -0.35 8.112864222636023 10.380333018796842 85.10020410436026 1 1 0
869 290 2 -0.35 8.282396176016837 13.700327504778379 78.05723188842538 0 0 0
3601 1201 1 0.7 1.385834076530198 10.894135172188644 81.80891199447451 0 0 0
3602 1201 2 -0.35 2.034202022033398 11.754417488371768 81.39829861309566 0 0 0
6993 2331 2 -0.35 5.537783356524213 10.349368846050016 81.08698565711053 0 -1 1
648 216 2 -0.35 8.51374413673402 13.59138442203079 85.78842053431202 0 0 0
3603 1201 2 -0.35 0.7546315575460832 10.079136705574594 82.29660441709348 0 0 0
646 216 1 0.7 7.8902230009441565 14.14769985252567 84.985677850265 0 0 0
1538 513 2 -0.35 1.4456730723241313 14.469786641529986 85.07883642975895 0 0 0
3464 1155 2 -0.35 10.350171781415016 15.912521150568661 80.18548628573895 1 0 0
6991 2331 1 0.7 5.561184122061135 11.370886554356561 80.52726762192306 0 -1 1
6992 2331 2 -0.35 5.471994507964463 12.40883058670983 80.043279641759 0 -1 1
4716 1572 2 -0.35 4.349572241433306 15.733900390441047 83.65959378410311 1 0 0
4714 1572 1 0.7 5.058651448304524 16.228907854022278 82.863925894613 1 0 0
4715 1572 2 -0.35 5.78704811079266 16.71915608923571 82.09727720881236 1 0 0
1537 513 1 0.7 1.3048536863724873 15.279635442482839 84.23012075459182 0 0 0
647 216 2 -0.35 7.470795314396127 14.826161126085925 84.13175770694829 0 0 0
4532 1511 2 -0.35 8.906264287840864 11.117603647770737 81.38258813113039 0 0 0
4531 1511 1 0.7 8.985057335260798 12.104278393104028 82.00407331181837 0 0 0
6592 2198 1 0.7 8.132622718194646 17.784191066314055 80.1724389907351 0 0 0
6594 2198 2 -0.35 8.051456421434207 17.33533754026106 79.10113780548834 0 0 0
1259 420 2 -0.35 10.276721716011224 18.848692202022256 77.5534398646452 0 0 0
4533 1511 2 -0.35 9.000041543230207 13.135269031556511 82.48842490813969 0 0 0
4701 1567 2 -0.35 5.033380297011506 14.083940691227657 86.11887122651166 1 0 0
3463 1155 1 0.7 10.654430633462606 14.799432516749487 80.02690008531695 1 0 0
1521 507 2 -0.35 16.136604129674296 11.960836161169127 78.0687209291062 0 0 0
1519 507 1 0.7 16.025364169679115 11.47500179024913 79.11864082671343 0 0 0
1520 507 2 -0.35 15.847778499808252 10.92350263933593 80.12591716319731 0 0 0
3526 1176 1 0.7 10.05105619813757 9.718739119014412 78.44435979209536 0 0 0
3527 1176 2 -0.35 9.420834574600173 10.685409289486223 78.42446556996278 0 0 0
3465 1155 2 -0.35 10.993202602794135 13.71818078887186 79.7894260502687 1 0 0
4103 1368 2 -0.35 15.147082064957011 14.764868266598068 84.69130422685146 1 0 0
3295 1099 1 0.7 14.959856817380977 16.37182132648309 79.94925731802863 0 1 0
5514 1838 2 -0.35 19.230813020305792 8.843979460513097 158.6831875767464 1 1 0
3297 1099 2 -0.35 15.34125825321836 15.288339509644736 79.81076332398541 0 1 0
744 248 2 -0.35 10.444251234721216 16.158432550535508 83.54143768308626 0 0 0
743 248 2 -0.35 12.363520411158394 15.412336568206742 82.50214980129547 0 0 0
742 248 1 0.7 11.407120209639444 15.786760653253339 83.0355122583857 0 0 0
2789 930 2 -0.35 10.3870510982006 9.414768765726729 83.36715637462525 0 0 0
6944 2315 2 -0.35 15.693706270605361 11.732362893010276 84.06239094079672 0 0 0
6943 2315 1 0.7 14.942638281847618 11.700908948939816 83.21347113326155 0 0 0
6945 2315 2 -0.35 14.090515531712441 11.690430931460284 82.45919953045839 0 0 0
6986 2329 2 -0.35 16.29507215639087 16.67787891877332 77.33338441272228 -5 0 1
3296 1099 2 -0.35 14.599093157933973 17.485335184193 79.99053897898708 0 1 0
6985 2329 1 0.7 17.27757512697393 17.112185827924357 76.86053947601567 -5 0 1
4102 1368 1 0.7 15.43425871702274 15.419590824891829 83.78256122791235 1 0 0
6975 2325 2 -0.35 18.60047677232309 14.1131111786137 80.07536915608407 1 -10 1
4104 1368 2 -0.35 15.735040280173466 16.031459662568654 82.83894693222338 1 0 0
930 310 2 -0.35 13.275648525636324 17.104188014662817 85.00118927651579 0 0 0
3798 1266 2 -0.35 18.078844561856712 14.319523987359599 83.18073251173982 0 0 0
3796 1266 1 0.7 18.69617178278859 15.160663071866347 82.72149226911556 0 0 0
1624 542 1 0.7 17.46104437411253 18.461022185971196 85.6629198078331 0 0 0
1626 542 2 -0.35 16.54790755786103 18.07579013853695 85.03597879011457 0 0 0
4480 1494 1 0.7 18.51422730090281 10.885577247292549 83.77569355159491 0 0 0
3276 1092 2 -0.35 9.585388750835474 6.229426710256984 84.47536281453297 0 0 0
6549 2183 2 -0.35 7.200531759998232 6.5289674720682545 86.93594627111834 1 1 0
195 65 2 -0.35 3.0636210236393078 2.578068387005824 85.99693071162567 0 0 0
5565 1855 2 -0.35 3.0115993525076457 6.564176877387052 87.76688434921475 1 1 0
6547 2183 1 0.7 7.260086638860401 7.481517323033273 87.59343437438875 1 1 0
6548 2183 2 -0.35 7.359844139574188 8.417426983313597 88.24484777393923 1 1 0
3145 1049 1 0.7 5.927525871138904 4.01731102253549 89.6217297245006 0 1 0
3147 1049 2 -0.35 5.656880316843997 3.6720343816714234 90.69982525172495 0 1 0
3146 1049 2 -0.35 6.253658642936154 4.245258592200251 88.52827014843179 0 1 0
2897 966 2 -0.35 4.2054074833368755 8.284801232556719 90.77464501030242 0 1 0
2896 966 1 0.7 5.053810927526285 8.133737991133554 91.55754085888739 0 1 0
5332 1778 1 0.7 2.6137326697939054 2.1551819801011964 89.04204120686616 1 1 0
3066 1022 2 -0.35 2.013248473410584 2.969959007014845 92.55534033753821 0 1 0
3064 1022 1 0.7 2.152803254810886 4.1072477989843605 92.49853546455239 0 1 0
5333 1778 2 -0.35 2.9158846473471134 1.0410085874926647 89.15491783855533 1 1 0
1947 649 2 -0.35 6.954863769113787 5.344142737246022 93.81529991237323 0 1 0
5563 1855 1 0.7 3.2586457312832113 6.15953474715857 88.85444713345964 1 1 0
5564 1855 2 -0.35 3.6231192484760473 5.772036034051615 89.90863300356108 1 1 0
5334 1778 2 -0.35 2.23180720094291 3.245149502242421 88.99879517917212 1 1 0
3065 1022 2 -0.35 2.3308616547901604 5.2377665109238 92.43672627154596 0 1 0
4348 1450 1 0.7 6.63117987372147 0.5178932894485959 87.08871674459147 1 0 0
4350 1450 2 -0.35 5.606968461149519 1.068046771782208 87.13556579525944 1 0 0
5434 1812 1 0.7 5.533271466871863 0.20823478706214532 90.98320402365104 0 1 0
2898 966 2 -0.35 5.787320271071747 8.007018330839976 92.41166506788589 0 1 0
5435 1812 2 -0.35 6.386958883901631 0.359688391040214 90.20315628415467 0 1 0
1011 337 2 -0.35 0.6568477652067727 8.24890628046955 91.50796933698574 0 0 0
1052 351 2 -0.35 8.313094432377577 6.407938765590164 90.33934304808429 0 0 0
1051 351 1 0.7 9.285490932116712 6.022582192529188 89.88166577317506 0 0 0
6558 2186 2 -0.35 9.511238838069707 0.7078459389556329 93.13637982923403 1 1 0
4124 1375 2 -0.35 10.24023554643081 0.8767476078778347 89.04279768540802 0 0 0
4125 1375 2 -0.35 9.195055759911462 2.6569715043503144 90.11112928234122 0 0 0
4123 1375 1 0.7 9.699663058196437 1.7856127693353385 89.56078906148473 0 0 0
6557 2186 2 -0.35 10.09010654987823 2.9486079195639183 93.4004962305674 1 1 0
1009 337 1 0.7 1.2096419547890997 8.31293842016359 92.52757776496574 0 0 0
1010 337 2 -0.35 1.880536663224823 8.436508836547766 93.45826585877535 0 0 0
6556 2186 1 0.7 9.786006442675061 1.8509107421037274 93.22694498525499 1 1 0
987 329 2 -0.35 1.4650656776666635 9.256041952444235 88.47799369643253 0 0 0
3274 1092 1 0.7 9.55850035352627 5.527873748540601 85.3998381569971 0 0 0
489 163 2 -0.35 18.875093799454813 13.524743472277418 144.9518097831826 0 0 0
21 7 2 -0.35 17.456319073123154 2.035816139638965 84.66257779488836 0 0 0
19 7 1 0.7 18.04686447880328 1.0376438139685287 84.75317615962145 0 0 0
415 139 1 0.7 6.461279559627683 12.373328496947703 234.81854978433046 -2 0 -1
1053 351 2 -0.35 10.210788020748865 5.639802314521168 89.34331553318066 0 0 0
5850 1950 2 -0.35 12.874614455264764 7.716678440230655 88.55626285564628 1 1 0
5848 1950 1 0.7 13.684417831321717 7.442458897604198 89.3436082788988 1 1 0
5849 1950 2 -0.35 14.29705677173012 7.066900551390018 90.24503641320386 1 1 0
4873 1625 1 0.7 12.949343446754202 4.347966815014253 91.66405371736369 0 0 0
4874 1625 2 -0.35 14.078257043667119 4.295002783332254 91.68366391728634 0 0 0
4875 1625 2 -0.35 11.822438689938007 4.505208468418899 91.4580423379211 0 0 0
6647 2216 2 -0.35 12.837703802916424 4.427207316759686 88.42849806934169 0 1 0
6646 2216 1 0.7 12.673807243882942 4.1174013224934765 87.3359682399217 0 1 0
6648 2216 2 -0.35 12.503734981009702 3.7873201925732403 86.21455548270511 0 1 0
1716 572 2 -0.35 17.228879981799206 6.312515246896283 90.98536073372489 0 0 0
1715 572 2 -0.35 16.23760876465024 7.741521982540558 92.4887859789261 0 0 0
1714 572 1 0.7 16.720295304201084 7.033816179861994 91.73311455541952 0 0 0
6448 2150 1 0.7 18.178949339652938 0.909123594799644 92.52141951280989 0 1 0
3133 1045 1 0.7 14.042116718795207 0.6337582145997476 91.82867932285633 0 1 0
3135 1045 2 -0.35 15.120567296487163 0.40999167373109824 92.22776710656653 0 1 0
6449 2150 2 -0.35 18.055178405491247 1.8032424927190693 93.20137486559945 0 1 0
20 7 2 -0.35 18.613263351502333 0.006842400077522302 84.74313163753476 0 0 0
4850 1617 2 -0.35 14.578205460075306 10.11009700955615 87.52685807296805 0 0 0
1504 502 1 0.7 16.168611102873562 3.46810474634222 89.78084343091267 0 0 0
1506 502 2 -0.35 15.861823534727051 4.168942412068452 88.8902484650887 0 0 0
147 49 2 -0.35 13.889853633486515 6.618047834129138 93.53697903201825 0 0 0
145 49 1 0.7 13.898832491114524 7.582578988731314 94.20917550918864 0 0 0
6227 2076 2 -0.35 13.199598917697886 1.2163842304047419 87.74775585822026 0 1 0
2700 900 2 -0.35 19.066456463746945 7.156822267084272 94.9337043180655 0 0 0
679 227 1 0.7 17.939558230788315 8.11236335677841 87.35706878306996 0 0 0
1505 502 2 -0.35 16.40099196961845 2.6826343337316394 90.61045820902324 0 0 0
681 227 2 -0.35 18.52455957771234 7.950237308753008 86.3466219263187 0 0 0
680 227 2 -0.35 17.337355569701433 8.27823596852301 88.32920727830624 0 0 0
842 281 2 -0.35 11.544891213724028 8.774511905247476 92.75563403505726 0 0 0
3134 1045 2 -0.35 13.01890652969848 0.9752162664366617 91.43923806267917 0 1 0
1113 371 2 -0.35 18.958353587896394 1.4964860577692503 87.96691045218279 0 0 0
6226 2076 1 0.7 12.80117293908042 0.1993543078217654 88.12356481523422 0 1 0
5679 1893 2 -0.35 2.056545526740793 0.7145522017382224 117.6388909421367 1 1 0
4700 1567 2 -0.35 3.5541052529027124 15.485253014652065 87.21061017294737 1 0 0
529 177 1 0.7 7.6432360634069285 15.580418580895106 88.87640147090204 0 0 0
531 177 2 -0.35 8.20673830387149 15.116945138033962 89.75245338204914 0 0 0
1139 380 2 -0.35 10.24267189669321 10.32401239908937 89.26447526708631 0 0 0
1029 343 2 -0.35 4.81065144566561 18.494546040887148 86.52529830896172 0 0 0
1138 380 1 0.7 9.250091735042432 10.819583483740987 88.91565421659591 0 0 0
1140 380 2 -0.35 8.28117567660804 11.356984991869858 88.50644937977114 0 0 0
4699 1567 1 0.7 4.280354522647237 14.787481793242996 86.63690706771536 1 0 0
2117 706 2 -0.35 5.005994391277223 10.282639939333588 87.12509703547411 0 1 0
2116 706 1 0.7 4.868751589380961 11.04963665857378 87.96565054868881 0 1 0
2118 706 2 -0.35 4.805064115357809 11.785430564775435 88.86559289742203 0 1 0
1536 512 2 -0.35 6.431500119389774 13.272217143383333 92.66976091791814 0 0 0
1534 512 1 0.7 6.5186703848700684 12.34642452801608 91.96217617892934 0 0 0
168 56 2 -0.35 4.9443092802037345 15.077553977494748 90.1899414074258 0 0 0
4801 1601 1 0.7 2.652450268943362 11.796059133823798 91.5847222400837 1 0 0
4802 1601 2 -0.35 3.398257500161482 12.684236752357164 91.65415470493122 1 0 0
166 56 1 0.7 3.8634939463925644 15.397646453828408 90.43436685749428 0 0 0
167 56 2 -0.35 2.775453573909275 15.721775452530233 90.63246072068827 0 0 0
1480 494 1 0.7 9.31111158667984 17.83812841556731 91.22203913934175 0 0 0
1481 494 2 -0.35 8.409862560721791 18.29817496860747 90.6615751177679 0 0 0
1535 512 2 -0.35 6.686681083178993 11.420780853547122 91.2902274160202 0 0 0
3131 1044 2 -0.35 0.3089429919847655 14.932511606941326 88.43433372027653 0 1 0
3130 1044 1 0.7 0.7406182331117838 13.909866040917906 88.81612989725978 0 1 0
5192 1731 2 -0.35 1.903712349390132 18.17466100990664 141.5715460997436 1 0 0
6674 2225 2 -0.35 2.835518743054981 15.760907979858636 94.08123648738078 1 1 0
530 177 2 -0.35 7.067442104385737 16.09301021370919 88.01204075314962 0 0 0
3132 1044 2 -0.35 1.1971324104465797 12.914526416600287 89.25875655170937 0 1 0
416 139 2 -0.35 6.297668215254317 13.504435499267212 234.64635590357503 -2 0 -1
3778 1260 1 0.7 1.8171945162897227 11.731957594876208 85.64918280216347 1 0 0
3780 1260 2 -0.35 2.7259368718861032 11.84033275915654 86.34187838874232 1 0 0
3779 1260 2 -0.35 0.8510658329410001 11.522547993503444 85.06284997718667 1 0 0
1329 443 2 -0.35 9.235794780508872 13.280108993088884 91.49440307346617 0 0 0
4803 1601 2 -0.35 1.937930127365666 10.882170054792017 91.52204852934935 1 0 0
4950 1650 2 -0.35 0.6953087862805979 17.729504896791408 86.47331492228011 1 0 0
417 139 2 -0.35 6.477541392619235 11.248406711434011 235.01023241207284 -2 0 -1
2709 903 2 -0.35 9.795992185709231 13.421954700268168 237.89760231093473 2 3 -1
4849 1617 1 0.7 13.977647292543224 10.736363916915542 86.77419498953705 0 0 0
563 188 2 -0.35 2.365498933157186 0.654474695326144 153.55863228904258 0 0 0
3939 1313 2 -0.35 17.56917411491304 16.532145821479457 92.11667124098882 0 0 0
749 250 2 -0.35 9.775527748020012 18.40706794762732 87.25538677272864 0 0 0
4851 1617 2 -0.35 13.280883220085954 11.172879929673003 85.95242860197285 0 0 0
843 281 2 -0.35 12.246051657866776 10.698226737282999 91.7005542053135 0 0 0
929 310 2 -0.35 13.0126396718152 18.18617407574663 87.02367104809676 0 0 0
841 281 1 0.7 11.822063615680063 9.744680463490868 92.19722204014293 0 0 0
221 74 2 -0.35 15.743608166250592 10.399513335065947 90.78635396834012 0 0 0
1464 488 2 -0.35 12.583565659665304 14.463979133086042 86.85894222204482 0 0 0
1462 488 1 0.7 11.652276253427623 14.088704664195015 87.43353622949046 0 0 0
1327 443 1 0.7 10.357490375879514 13.638582517580744 91.31572356842405 0 0 0
692 231 2 -0.35 16.025038045903187 13.850954469090322 91.24068372969613 0 0 0
1463 488 2 -0.35 10.692952949224681 13.709200882694715 87.97828559196641 0 0 0
220 74 1 0.7 16.866259519298936 10.420635756991627 90.52354865921217 0 0 0
222 74 2 -0.35 17.89659599645666 10.533394384561618 90.01820504846485 0 0 0
691 231 1 0.7 15.078241688206685 13.538235101063893 90.63441149001788 0 0 0
693 231 2 -0.35 14.195997353454711 13.3349829962692 89.92558367944402 0 0 0
1328 443 2 -0.35 11.416585516243865 14.04889908516136 91.15034908644986 0 0 0
3937 1313 1 0.7 17.394107076216024 16.627386158786624 90.95536821210166 0 0 0
2 1 2 -0.35 12.16737610020192 16.50648135687061 89.30552227438139 0 0 0
1 1 1 0.7 13.14624147612639 16.502571980912478 89.92319601587674 0 0 0
334 112 1 0.7 15.583846730003984 14.388366072055259 87.31978879020764 0 0 0
335 112 2 -0.35 15.500813880769027 15.503862129444757 87.48573371411098 0 0 0
3561 1187 2 -0.35 15.663857022839224 11.07618726857776 93.94043970474118 0 0 0
3347 1116 2 -0.35 14.553086063368996 14.169844667663956 93.55996233083064 0 0 0
1625 542 2 -0.35 18.383864919803745 18.762713689117163 86.32174788009776 0 0 0
3938 1313 2 -0.35 17.171018924177403 16.827710029471785 89.83726187501632 0 0 0
3 1 2 -0.35 14.117582032951333 16.598869014838833 90.5250688141735 0 0 0
336 112 2 -0.35 15.63550033988605 13.231219353156426 87.24370349296791 0 0 0
928 310 1 0.7 13.119510257405002 17.642078687072495 85.99948808280128 0 0 0
1482 494 2 -0.35 10.179397875294729 17.424484882719764 91.8571251128474 0 0 0
308 103 2 -0.35 18.182650612579216 13.833737036660114 88.99616201507081 0 0 0
3346 1116 1 0.7 14.453954392414632 14.02393805685584 94.72295305730441 0 0 0
1607 536 2 -0.35 18.199633064349328 12.617612665900257 93.13491028812672 0 0 0
1365 455 2 -0.35 19.02267501129406 15.916053170649105 86.00661802083803 -1 0 0
4481 1494 2 -0.35 18.957921615243123 10.961375365650563 84.85723865744141 0 0 0
1945 649 1 0.7 7.580030136551289 6.275012985830908 94.05333053356208 0 1 0
1946 649 2 -0.35 8.365610336385668 7.105639923508641 94.31734323132672 0 1 0
538 180 1 0.7 3.0767914782547874 6.502008846092904 95.48852549811257 0 0 0
539 180 2 -0.35 2.01156978782528 6.208908706498501 95.82471246108183 0 0 0
540 180 2 -0.35 4.083402918984842 6.7414312567122145 94.98470390805625 0 0 0
5814 1938 2 -0.35 9.581748890205477 2.8587312435905137 98.38051213576257 1 1 0
5812 1938 1 0.7 10.463227974521885 2.1635062057254317 97.98303591115297 1 1 0
2135 712 2 -0.35 6.615547276520174 7.814453018666782 98.35164132033798 0 1 0
2136 712 2 -0.35 7.1262588857246625 8.30164563410104 100.56956496598676 0 1 0
2134 712 1 0.7 6.867483596835244 8.135673339261736 99.44797258805279 0 1 0
1367 456 2 -0.35 3.7336195160514074 3.679262839010315 99.8388251954501 0 0 0
1368 456 2 -0.35 5.619061193090732 5.000880957076628 99.88006088217847 0 0 0
1366 456 1 0.7 4.634118721173049 4.410174571239287 99.77729489297498 0 0 0
3613 1205 1 0.7 1.3068464741770367 7.5334909643737085 99.52732036814052 1 0 0
3615 1205 2 -0.35 1.9800464093771528 6.785099697759599 100.09045400737044 1 0 0
1552 518 1 0.7 8.37511195781003 5.532715303329418 97.65919098339772 0 0 0
3614 1205 2 -0.35 0.6144412072691631 8.288118117152042 98.99123886906052 1 0 0
4817 1606 2 -0.35 1.9698687444453225 4.351718568650592 102.53769512711074 1 0 0
3521 1174 2 -0.35 0.7839920105515144 2.821893783829589 95.19709082759462 1 0 0
3520 1174 1 0.7 0.04303858812247205 1.9561050000912772 95.48280809372847 1 0 0
3619 1207 1 0.7 1.2612857923624152 0.36923778115771344 143.161774088725 1 0 0
1553 518 2 -0.35 7.738042528987032 5.093210919618016 96.79476196513275 0 0 0
4621 1541 1 0.7 5.728129689481095 2.653780668487154 93.84901723041061 1 0 0
4623 1541 2 -0.35 4.903902821781057 3.4424246370888585 93.93648716321442 1 0 0
1554 518 2 -0.35 9.030826929681053 5.963977414209501 98.5352114065902 0 0 0
4622 1541 2 -0.35 6.575108097489579 1.8838517619044837 93.69018440152841 1 0 0
4816 1606 1 0.7 2.4330897997092835 3.2797008716269205 102.53380318708969 1 0 0
3238 1080 1 0.7 9.359944668219914 3.9672245634690197 101.35971776055966 0 1 0
3240 1080 2 -0.35 8.393132798970063 3.3905488296993296 101.52977919590357 0 1 0
656 219 2 -0.35 9.87323597148485 8.448904709803424 96.48813908417775 0 0 0
6792 2264 2 -0.35 2.902517073807479 9.446722584249821 96.11557834445236 1 1 0
655 219 1 0.7 9.83661642276621 9.269376196157339 95.66980282275264 0 0 0
1212 404 2 -0.35 4.6318102334024545 8.236285589688933 102.39629884470077 0 0 0
121 41 1 0.7 0.7983269306917408 8.781733026650969 102.69178497677714 0 0 0
657 219 2 -0.35 9.760778895911463 10.164050244474652 94.92793599721163 0 0 0
4818 1606 2 -0.35 2.927018473093667 2.266544908085794 102.54943994588147 1 0 0
2777 926 2 -0.35 2.899803460957853 0.7824819417689792 95.3307597719993 0 1 0
5700 1900 2 -0.35 13.97241877785591 10.79184301494619 221.14806236140072 0 -1 0
3209 1070 2 -0.35 6.508498234604493 0.6190517403778509 100.10493303096675 0 1 0
258 86 2 -0.35 14.730223873667985 3.6418206959152277 94.73554816295766 0 0 0
256 86 1 0.7 15.544440797138845 4.419915579445084 94.47745448421512 0 0 0
146 49 2 -0.35 13.950399519416683 8.561493123533523 94.80035330907445 0 0 0
257 86 2 -0.35 16.322280178939973 5.2178814391136354 94.17206488009472 0 0 0
3423 1141 2 -0.35 12.57792266456807 2.531739233745531 100.34187759229215 0 1 0
1679 560 2 -0.35 11.932667929550067 7.9336969322171536 98.73706212523149 0 0 0
1678 560 1 0.7 11.790781728341159 7.573659952274171 99.8500791661883 0 0 0
3421 1141 1 0.7 13.040210637758074 3.5715013307180907 100.47495662249868 0 1 0
5813 1938 2 -0.35 11.35967724505737 1.473794882085687 97.58650005958341 1 1 0
3422 1141 2 -0.35 13.461375906004953 4.639129251825302 100.46501140340776 0 1 0
1190 397 2 -0.35 17.150909743889475 2.28827488757135 96.22590890894674 0 0 0
472 158 1 0.7 16.279679414772936 8.39716375728263 99.63683940505024 0 0 0
1633 545 1 0.7 16.00930443327622 4.970124224596901 99.11301497856066 0 0 0
1634 545 2 -0.35 15.390865061742574 4.681862770996193 98.15557513312766 0 0 0
1635 545 2 -0.35 16.62638434027094 5.1824729265879625 100.07965913094415 0 0 0
1191 397 2 -0.35 16.318508770988327 1.592431737821255 98.25523204598889 0 0 0
1189 397 1 0.7 16.733272499687374 1.9555023782542453 97.23896220854787 0 0 0
4061 1354 2 -0.35 11.60957840380574 5.909912194496138 95.19183627981838 0 0 0
4060 1354 1 0.7 11.69380165029504 5.333962152815146 96.16237315839557 0 0 0
4062 1354 2 -0.35 11.793974922962223 4.68524420582935 97.14307420029427 0 0 0
327 109 2 -0.35 18.880908511573573 2.982446449838758 98.90761833241069 0 0 0
2698 900 1 0.7 18.701411346943388 6.730903460211959 95.93318831171214 0 0 0
1556 519 2 -0.35 14.481259925517776 0.2968434884068282 101.71226837408085 0 0 0
473 158 2 -0.35 17.38036899201511 8.749657936452119 99.85347928669579 0 0 0
2699 900 2 -0.35 18.219200401717156 6.356299048432085 96.9242261159149 0 0 0
5724 1908 2 -0.35 19.046441763954746 6.170557525596524 145.32212041192824 0 0 0
1680 560 2 -0.35 11.757618510378578 7.297495882243501 100.96590556774865 0 0 0
474 158 2 -0.35 15.173443013078094 8.133907542177967 99.41876679729667 0 0 0
3239 1080 2 -0.35 10.231480869061793 4.6732975687449425 101.11642954524478 0 1 0
1514 505 2 -0.35 18.221794634615563 3.0108197526043328 101.84117155987661 0 0 0
6673 2225 1 0.7 3.0873230363087907 16.426316775138567 94.97537308127242 1 1 0
2910 970 2 -0.35 5.808211207985278 15.73199341026651 94.28071002226882 0 1 0
2908 970 1 0.7 6.949573230475793 15.656821029711093 94.14921039512953 0 1 0
2909 970 2 -0.35 8.089212520482626 15.52315258828031 94.17149111448617 0 1 0
6790 2264 1 0.7 2.936344599700425 10.226277861012916 95.2574231487445 1 1 0
5407 1803 1 0.7 4.028558301708564 18.963144324336227 102.63509128567257 1 0 0