LAMMPS data file via write_data, version 29 Aug 2024, timestep = 200000, units = real

7050 atoms
2 atom types
4700 bonds
1 bond types
2350 angles
1 angle types

0 40 xlo xhi
0 40 ylo yhi
0 240 zlo zhi

Masses

1 12.0107
2 15.9994

Pair Coeffs # lj/cut/coul/long/omp

1 0.0536545 2.8
2 0.156989 3.05

Bond Coeffs # harmonic/omp

1 1028.27 1.16

Angle Coeffs # harmonic/omp

1 55.96 180

Atoms # full

4467 1489 2 -0.35 2.9944135047893186 0.30211727081471534 72.16052041471075 1 -1 0
4465 1489 1 0.7 2.691134354152301 1.1131092196095722 71.3670734326008 1 -1 0
4466 1489 2 -0.35 2.3359385959192562 1.892695220276137 70.57200481907398 1 -1 0
1388 463 2 -0.35 9.216150863973267 3.322220345093009 67.1418629946966 0 0 0
1387 463 1 0.7 8.989650740522702 3.11555720476479 68.27654086389467 0 0 0
1389 463 2 -0.35 8.750724380540344 2.8811944486012915 69.3795777763071 0 0 0
3794 1265 2 -0.35 4.652415113009106 5.042705297640069 71.89824898777121 0 0 0
4322 1441 2 -0.35 6.380441821454319 1.7738761267414163 71.28113589534817 1 0 0
4321 1441 1 0.7 7.41679680218258 1.6247156978085235 71.76785126566743 1 0 0
1804 602 1 0.7 13.246572752347774 5.30748370917442 72.02903711056669 0 1 0
1805 602 2 -0.35 12.796993794230055 6.337655361589297 71.80851980761197 0 1 0
1460 487 2 -0.35 18.603815212630128 9.782375294183897 71.20302775431895 0 0 0
5216 1739 2 -0.35 15.796141964611474 9.243328359393594 65.55811455033601 0 1 0
5215 1739 1 0.7 16.04081022990326 10.189165145609216 66.22098851953055 0 1 0
5217 1739 2 -0.35 16.216540106891365 11.154008632339917 66.85395250345375 0 1 0
1461 487 2 -0.35 18.033635097814273 8.123480658416788 69.76039492904486 0 0 0
1459 487 1 0.7 18.300297511308663 8.937230730040781 70.49841716988983 0 0 0
3793 1265 1 0.7 5.763589551505117 4.9191856664506615 72.24636381751618 0 0 0
3795 1265 2 -0.35 6.900055815719046 4.872510525057042 72.5154777623643 0 0 0
4323 1441 2 -0.35 8.434437816596368 1.6701034714671037 72.30471338008752 1 0 0
1800 600 2 -0.35 2.6943939035397912 3.2190870403710643 75.85274374141156 0 1 0
6910 2304 1 0.7 7.876062491270741 4.459531182797795 74.99252827279152 -2 1 0
6912 2304 2 -0.35 7.786933712023232 3.3341477905880996 74.71607342419779 -2 1 0
6911 2304 2 -0.35 8.065386893405494 5.5894837678259215 75.24529874102355 -2 1 0
66 22 2 -0.35 3.890439037914641 3.1076493620731647 78.7229641408409 0 0 0
64 22 1 0.7 2.9755774016671217 2.519422503127497 79.10758118968592 0 0 0
4796 1599 2 -0.35 6.369201277399537 0.02490160162802489 75.5143678016458 1 0 0
4795 1599 1 0.7 5.998606848949932 0.8676444067165545 74.78205918493337 1 0 0
4797 1599 2 -0.35 5.547202836955129 1.6629419980051492 74.06918488100746 1 0 0
16 6 1 0.7 0.32405672558562504 1.021090501214932 74.56274930722986 1 0 0
2669 890 2 -0.35 13.769474945453421 1.5692671351701881 106.52739150714092 0 1 0
878 293 2 -0.35 2.9956424404638513 6.949515380833784 78.95082515215627 0 0 0
877 293 1 0.7 2.7203133994829094 6.8735824311148175 77.83893675323229 0 0 0
3527 1176 2 -0.35 8.51861613077566 7.115357816224357 78.3407877646908 1 0 0
3526 1176 1 0.7 8.689668936337869 6.63682217706495 79.3948032035547 1 0 0
3528 1176 2 -0.35 8.849756898726465 6.154021056276209 80.44638182756883 1 0 0
1754 585 2 -0.35 0.7499603231209884 5.145963659772617 74.21709014325144 1 1 0
879 293 2 -0.35 2.3808248638627996 6.734015766643141 76.70812717282722 0 0 0
1798 600 1 0.7 3.595121129050577 3.9504529283615684 75.6988913661271 0 1 0
12 4 2 -0.35 1.8281671258791354 8.158045869943141 73.31746953726771 0 0 0
6947 2316 2 -0.35 6.782069547693089 4.906408805293982 78.67314803243204 1 2 0
6946 2316 1 0.7 6.627967092884473 4.144008197847496 79.53674552841959 1 2 0
1753 585 1 0.7 0.06619033477822436 5.691777163279363 74.94585507877846 1 1 0
10 4 1 0.7 2.2851697961405466 8.724540956448548 74.17668703674806 0 0 0
11 4 2 -0.35 2.8042447995683153 9.356490056826527 74.97804014353322 0 0 0
777 259 2 -0.35 8.216646538894357 1.8484287763542697 77.41099387105575 0 0 0
1799 600 2 -0.35 4.5041599122405955 4.6549986761287485 75.65358475642002 0 1 0
4581 1527 2 -0.35 18.533592522530657 17.171581914529412 106.76382143765235 1 0 0
775 259 1 0.7 9.283974551227061 1.476175122135789 77.6895125816358 0 0 0
4204 1402 1 0.7 12.497207332507497 15.456744077373799 106.75254099961876 1 0 0
6948 2316 2 -0.35 6.532897191763082 3.480776016331439 80.46995301854137 1 2 0
2702 901 2 -0.35 14.323370493891057 18.977149513416187 101.12289256103313 0 1 0
4205 1402 2 -0.35 11.662155812899966 14.850296499491096 106.23056318879586 1 0 0
1838 613 2 -0.35 5.349404825408891 0.4857718945841146 80.60756964228914 0 1 0
776 259 2 -0.35 10.404116388017869 1.17982006923069 77.89841367363306 0 0 0
680 227 2 -0.35 9.327054495494462 0.1821167771836171 74.75072118013637 0 0 0
3968 1323 2 -0.35 2.807038846814389 10.132258297622618 77.92854971300224 1 0 0
65 22 2 -0.35 2.069972623702912 1.9243272795939401 79.57271405687314 0 0 0
1837 613 1 0.7 6.481536653911974 0.5505915076850533 80.38629373941518 0 1 0
1806 602 2 -0.35 13.709269932897552 4.264032651691339 72.23302907396368 0 1 0
2528 843 2 -0.35 18.47565540506053 17.43847201077477 103.5365054085373 0 0 0
23 8 2 -0.35 10.780461489990996 9.260137752867863 76.06172015524413 0 0 0
1830 610 2 -0.35 16.864361994316006 4.738673374839844 74.64014071476592 0 1 0
6941 2314 2 -0.35 11.065394359353713 4.113079495952908 75.81968608037685 -8 -5 0
6649 2217 1 0.7 10.488034456038658 2.6696734174377053 81.52300103004008 1 1 0
1794 598 2 -0.35 19.405660896170293 2.6915258595292446 76.29135024493517 0 1 0
1792 598 1 0.7 19.066910817574737 2.5823139129838157 75.18750736281979 0 1 0
1793 598 2 -0.35 18.77732030503651 2.4571854691770247 74.06805767020485 0 1 0
33 11 2 -0.35 14.683165114405627 7.356258859652263 74.0797266356564 0 0 0
32 11 2 -0.35 13.496980450753881 9.233124878236746 73.46876950187165 0 0 0
31 11 1 0.7 14.077490992758111 8.27349704461494 73.69138544640236 0 0 0
2111 704 2 -0.35 17.643171015886303 8.654285651400212 80.23290280305005 0 1 0
2112 704 2 -0.35 17.6233439329988 7.347545142586112 78.3248460304132 0 1 0
2110 704 1 0.7 17.631100660801586 7.983777411980785 79.30555923260559 0 1 0
22 8 1 0.7 9.650074833311857 9.612790588822913 76.01404192552377 0 0 0
6942 2314 2 -0.35 11.769433697280489 5.813710767683981 74.44772258902799 -8 -5 0
6940 2314 1 0.7 11.434878045903396 4.95198449482118 75.13103827058161 -8 -5 0
5774 1925 2 -0.35 16.69190048786408 3.6438688567602195 79.6673387140535 1 1 0
5773 1925 1 0.7 15.877060123563787 4.398437332141331 79.27911563387983 1 1 0
5775 1925 2 -0.35 15.037769271022627 5.047383794406601 78.76800477503083 1 1 0
5998 2000 1 0.7 15.230938823686397 3.1313307631985587 76.3424135183171 1 1 0
6000 2000 2 -0.35 16.13615399277393 2.6906957607937203 76.82532607170445 1 1 0
6651 2217 2 -0.35 10.116206585969174 2.38569756899117 80.46919293564028 1 1 0
5999 2000 2 -0.35 14.214156886106085 3.525057866722103 75.95929445755134 1 1 0
6960 2320 2 -0.35 16.406902599197295 10.229698429646577 73.85803884407352 0 -1 0
24 8 2 -0.35 8.505616228146248 9.778152147171244 75.9309768748227 0 0 0
5291 1764 2 -0.35 11.426811403878645 6.49662700503161 78.1049634739512 0 1 0
5290 1764 1 0.7 12.439677583336072 6.983200015340257 78.33897657983951 0 1 0
1828 610 1 0.7 16.776610321947345 5.410674258155447 73.64496201200569 0 1 0
1829 610 2 -0.35 16.65223191619254 6.172746869300447 72.76039873532314 0 1 0
5292 1764 2 -0.35 13.532117269721962 7.407009241724676 78.47680739841742 0 1 0
4094 1365 2 -0.35 11.331425707038017 9.866569177055716 79.72332830296163 1 0 0
5619 1873 2 -0.35 16.397684757421313 0.2785139424287535 73.01220840218645 1 1 0
3637 1213 1 0.7 0.05494053820722905 7.355195576466698 103.77121948429256 1 0 0
6642 2214 2 -0.35 10.300848544917931 9.782822410339099 72.9222498812722 1 1 0
1155 385 2 -0.35 15.186248497006904 10.520173258293648 81.58713818122726 0 0 0
2877 959 2 -0.35 13.479612395358737 1.901356737700283 79.73868082513266 0 1 0
2875 959 1 0.7 13.437992679484074 1.5830871051638817 78.62411586516494 0 1 0
6571 2191 1 0.7 19.742490884114723 16.892899265892698 98.04345609354779 0 1 0
3967 1323 1 0.7 3.812521968355178 10.695117966167292 77.89694448577698 1 0 0
3969 1323 2 -0.35 4.830914374465599 11.235864181551154 77.85935383911536 1 0 0
1917 639 2 -0.35 1.3161391681376842 14.635895894406463 78.78849852070759 1 0 0
1916 639 2 -0.35 0.6441681956296645 14.051504167027321 76.63849635696089 1 0 0
1915 639 1 0.7 0.9871579339328534 14.306768403584007 77.72392064883695 1 0 0
813 271 2 -0.35 9.95546689114047 16.125762136271916 78.55002000702629 0 0 0
811 271 1 0.7 9.875555290191178 15.192938212101932 77.87018502808843 0 0 0
3721 1241 1 0.7 6.016155936605756 14.009920389033887 79.28383522138607 1 0 0
3723 1241 2 -0.35 6.611520267422315 14.478265226533269 78.3822335510368 1 0 0
4579 1527 1 0.7 17.40586563342711 16.901594621783076 106.5517416678293 1 0 0
6920 2307 2 -0.35 6.872720678518613 10.959240808710202 73.42259599675728 0 0 0
3722 1241 2 -0.35 5.435500769201581 13.585993424643823 80.185575027818 1 0 0
1803 601 2 -0.35 4.410642983664054 16.24282336306671 78.87538868002127 1 0 0
6921 2307 2 -0.35 5.550945019977171 12.312002671371154 74.79334305395639 0 0 0
6919 2307 1 0.7 6.2353096800589825 11.657488289618108 74.12886150833391 0 0 0
4223 1408 2 -0.35 2.6081715464754214 12.291027801572007 80.19799666906205 1 0 0
1801 601 1 0.7 3.879519565532903 16.204192940234094 79.91255334278081 1 0 0
3481 1161 1 0.7 11.006498896588866 17.474858078896897 75.40260951638945 1 0 0
3482 1161 2 -0.35 10.95280723686249 18.63322053202799 75.26179110741492 1 0 0
3168 1056 2 -0.35 7.036620301530454 9.413524588461994 80.27766979195202 0 1 0
812 271 2 -0.35 9.635115864494587 14.233416975440853 77.2671414317611 0 0 0
6958 2320 1 0.7 16.991815912386024 10.874153619606815 74.62419181327759 0 -1 0
3483 1161 2 -0.35 11.092934607684754 16.332363796351636 75.56813815208432 1 0 0
6641 2214 2 -0.35 10.898932606701992 11.91597980656202 73.62188220784076 1 1 0
6992 2331 2 -0.35 12.958532302086354 11.734275475758798 77.30602737617632 -1 1 1
914 305 2 -0.35 17.07265089681041 15.163370182276086 72.4421610376664 0 0 0
6991 2331 1 0.7 13.409475895783036 11.663836136083345 76.23571984316696 -1 1 1
6959 2320 2 -0.35 17.615443752454098 11.464109997156879 75.39649571808978 0 -1 0
6993 2331 2 -0.35 13.855150452743715 11.44573530609719 75.1852279601283 -1 1 1
915 305 2 -0.35 16.571088934042134 12.924464609077067 72.37232144589139 0 0 0
61 21 1 0.7 15.985460451909262 14.330364533169327 76.12572027040346 0 0 0
27 9 2 -0.35 16.83721527220309 11.515541917610312 78.91572624467837 0 0 0
25 9 1 0.7 17.401136388463925 12.447329271764795 78.49945600381808 0 0 0
913 305 1 0.7 16.84950993800068 14.04341138864783 72.40916501633262 0 0 0
63 21 2 -0.35 15.303876027648219 13.724035173650675 76.77244902325606 0 0 0
6640 2214 1 0.7 10.683294522496311 10.829967827998917 73.2729955565355 1 1 0
6995 2332 2 -0.35 19.036124277300146 16.00452240045753 80.16546118350048 0 3 1
26 9 2 -0.35 18.026897571278745 13.326293553822241 78.0580461342487 0 0 0
62 21 2 -0.35 16.740248410909548 14.851821914260935 75.4430557026584 0 0 0
6994 2332 1 0.7 18.0516019973984 16.2133677329701 79.63493775490019 0 3 1
6996 2332 2 -0.35 17.002880500316465 16.275071772781203 79.17851260386004 0 3 1
1780 594 1 0.7 19.373829704953394 16.138943846708084 76.04763336238737 0 1 0
1304 435 2 -0.35 15.575621429598971 9.14829903383476 106.63144194510681 0 0 0
114 38 2 -0.35 13.314915005513946 15.91876445388076 79.62560368945805 0 0 0
6276 2092 2 -0.35 15.989678714268557 17.93225726762417 75.08841332931017 1 0 0
6274 2092 1 0.7 15.119393797973203 17.17235912486209 74.96136932064034 1 0 0
6275 2092 2 -0.35 14.22408157945645 16.396066515764602 74.91088226754533 1 0 0
1781 594 2 -0.35 18.935136788429435 17.13354963072026 76.48012744899567 0 1 0
4105 1369 1 0.7 11.286827267366458 0.5563223809455384 101.72695412898533 1 0 0
3812 1271 2 -0.35 3.830529467954449 3.2873469449252815 82.60438734274682 1 0 0
50 17 2 -0.35 1.0614863069695997 4.28078612820488 84.51930530379984 0 0 0
5323 1775 1 0.7 6.200913210792189 7.234045716798886 81.92021476690302 1 1 0
5324 1775 2 -0.35 6.399335855977757 8.10538509121172 82.66889438890138 1 1 0
3811 1271 1 0.7 4.685256570612006 3.879240555012666 83.100817771395 1 0 0
3813 1271 2 -0.35 5.533935201072185 4.4892039953514935 83.6093279554595 1 0 0
2077 693 1 0.7 9.053193851221401 2.8514761154258346 85.79926915659196 0 1 0
1616 539 2 -0.35 2.1347487842385466 9.364364381315907 86.9548359750923 0 0 0
3641 1214 2 -0.35 4.4019775044416924 1.993502242955103 88.02631715828657 1 0 0
3640 1214 1 0.7 3.7222714596379625 2.5113136596498276 87.22297442545366 1 0 0
3642 1214 2 -0.35 3.0047900879349627 3.0288893811062567 86.46700837020866 1 0 0
3297 1099 2 -0.35 6.8220319201529644 7.133899178244789 86.16727139264914 0 1 0
3295 1099 1 0.7 6.57920188702509 6.434956547008561 87.05983403334929 0 1 0
3296 1099 2 -0.35 6.251964068707192 5.809862447412755 87.97964554492087 0 1 0
5283 1761 2 -0.35 8.190704272828354 7.55631354094362 89.57109073992436 0 0 0
1615 539 1 0.7 2.1935001228295863 8.846768313589482 85.92126191042777 0 0 0
1617 539 2 -0.35 2.302838870729935 8.247806708981114 84.94707571499906 0 0 0
5325 1775 2 -0.35 5.986743163229299 6.366169302335929 81.16371955527556 1 1 0
3490 1164 1 0.7 2.2566128976931723 9.400321850132121 82.2434780103249 1 0 0
3491 1164 2 -0.35 3.3869829607019057 9.291696763925229 82.30659529452626 1 0 0
3531 1177 2 -0.35 1.5686037610671648 6.479852331221506 81.86554751317358 1 0 0
3492 1164 2 -0.35 1.1312097912352441 9.588345306897065 82.22241097124072 1 0 0
1839 613 2 -0.35 7.570028574092968 0.687780016939155 80.11424213820081 0 1 0
2079 693 2 -0.35 8.445656939016954 3.8034672075543563 86.06486048785595 0 1 0
1823 608 2 -0.35 9.970292497653801 8.899250204168348 86.17689732236488 0 1 0
6038 2013 2 -0.35 3.421940068692399 6.558226991860306 87.92583130834916 1 1 0
1842 614 2 -0.35 7.967093845068526 2.457642141611571 89.69759384712897 0 1 0
6037 2013 1 0.7 3.0305800827682368 5.775677920628597 88.6766065815588 1 1 0
632 211 2 -0.35 1.1538876985513358 1.0723062054675188 83.3778628662262 0 0 0
631 211 1 0.7 2.0142636270661267 0.6769215356142604 82.68236675271827 0 0 0
3529 1177 1 0.7 0.42487486233879446 6.720755474637104 81.83274536679129 1 0 0
5100 1700 2 -0.35 7.451438218206885 1.1960192615697798 82.98196366472557 1 0 0
5098 1700 1 0.7 8.524966010145306 0.8197651946632332 82.7739867664888 1 0 0
6650 2217 2 -0.35 10.881714505421382 3.0119465409666697 82.54947552829057 1 1 0
4093 1365 1 0.7 11.530231152784458 10.700267253228134 80.50003335620643 1 0 0
2078 693 2 -0.35 9.617791222434205 1.865959261625869 85.52351268738173 0 1 0
1772 591 2 -0.35 9.166881258533401 6.140153758704251 84.34978171505594 0 1 0
1771 591 1 0.7 10.203639089912162 5.83522600788973 84.70071046889346 0 1 0
1773 591 2 -0.35 11.220570476128069 5.353908352348181 84.99927208340497 0 1 0
5272 1758 1 0.7 19.44965682454663 7.830169700193851 82.66191680693446 0 1 0
5285 1762 2 -0.35 13.29998315434998 9.293968112415726 84.20876967408587 1 1 0
530 177 2 -0.35 17.582948225361893 2.653825474846114 88.12453422614303 0 0 0
2631 877 2 -0.35 15.05087879722386 0.9131094017486274 87.02501584544966 0 1 0
5284 1762 1 0.7 14.365017501983587 8.873223461381748 84.06518611641366 1 1 0
5286 1762 2 -0.35 15.413447096089 8.417605493145926 83.9137041066203 1 1 0
3212 1071 2 -0.35 18.31276879083391 2.570282475849426 82.44362253720094 0 1 0
3211 1071 1 0.7 18.95008098196161 3.444808851125343 82.0232121817793 0 1 0
2115 705 2 -0.35 14.501041344955786 4.12940862413186 82.20806312638263 0 1 0
2113 705 1 0.7 13.657006560819303 4.770052185212571 81.82607450702581 0 1 0
2114 705 2 -0.35 12.751815108050945 5.331567698345823 81.3788836893876 0 1 0
1774 592 1 0.7 14.107166443589335 5.669167194792432 86.46397828614168 0 1 0
1776 592 2 -0.35 14.081384572278903 6.32088550726996 85.50957822414615 0 1 0
1775 592 2 -0.35 14.07653369094511 4.956836590967021 87.37344190339896 0 1 0
2258 753 2 -0.35 15.498882633943085 1.3465079644593392 83.72514436219116 0 1 0
2257 753 1 0.7 16.081430551324267 0.7617312474274508 82.9093604180191 0 1 0
2259 753 2 -0.35 16.523712486902706 0.08780144150207406 82.08593505946595 0 1 0
7002 2334 2 -0.35 16.715870357346553 5.839816210612744 82.38406522657763 -1 -2 1
7001 2334 2 -0.35 16.42365569068651 5.008711769367073 84.57585532328018 -1 -2 1
7000 2334 1 0.7 16.635432032528303 5.464076902785519 83.51187133508917 -1 -2 1
2585 862 2 -0.35 12.620346088846414 2.665990910702728 85.59691369020521 0 1 0
2629 877 1 0.7 15.96960781795989 0.36889925735186063 86.64403645692717 0 1 0
1877 626 2 -0.35 11.83708939268321 10.784072386304294 88.03132747071143 0 1 0
5901 1967 2 -0.35 11.230557589707477 1.2743355290312175 88.00002768282518 1 1 0
1876 626 1 0.7 12.607730961871681 9.991368029793001 87.61987763670591 0 1 0
995 332 2 -0.35 19.079741295457257 5.981786982746194 87.26545817895958 0 0 0
529 177 1 0.7 18.6357040128552 2.9134268492417688 88.55115892640484 0 0 0
5273 1758 2 -0.35 18.89693535962568 8.109586141512846 83.6388859975059 0 1 0
1878 626 2 -0.35 13.385433852167655 9.237924311334297 87.20530975817354 0 1 0
2584 862 1 0.7 12.648343868174546 1.513894059919777 85.4428276794766 0 1 0
4580 1527 2 -0.35 16.268470249947022 16.6959637114815 106.29750978512735 1 0 0
2586 862 2 -0.35 12.637631682978515 0.36905582885647875 85.42820955458468 0 1 0
53 18 2 -0.35 7.139910136891038 16.914124578837153 80.13409820914232 1 -1 0
3167 1056 2 -0.35 7.937137081617464 11.516777726042562 80.60732438412643 0 1 0
3582 1194 2 -0.35 0.8514469941699117 10.344566963340672 89.69978438362803 1 0 0
3580 1194 1 0.7 1.5752195930737678 9.46338999415524 89.81028482061967 1 0 0
6626 2209 2 -0.35 5.783099167642577 9.961541814008395 87.93780550893626 1 1 0
3166 1056 1 0.7 7.416509946661974 10.488203944136183 80.43964341199323 0 1 0
4892 1631 2 -0.35 1.7835194446232017 17.559577749048653 83.67576371193533 1 0 0
1824 608 2 -0.35 9.359964604689125 9.274770145519394 83.9599973042511 0 1 0
4891 1631 1 0.7 2.185201181047817 16.514328064150956 83.85129842584607 1 0 0
1601 534 2 -0.35 6.764743627821517 16.91587384291359 85.44272953870178 0 0 0
52 18 1 0.7 8.009465939921117 17.518067626559734 80.62378459575423 1 -1 0
6627 2209 2 -0.35 5.8431469026875815 10.196489060777914 85.63645699713278 1 1 0
6625 2209 1 0.7 5.782082836706816 10.035100530031913 86.79724493341955 1 1 0
170 57 2 -0.35 7.074874801484001 12.001009591850986 83.32465228954209 0 0 0
171 57 2 -0.35 4.75564637445141 11.896281522855102 83.47656276939023 0 0 0
169 57 1 0.7 5.9109683353959355 11.92706475797779 83.46792842671901 0 0 0
3702 1234 2 -0.35 7.851912435061825 13.95795781090575 86.1882216701483 1 0 0
3700 1234 1 0.7 8.07967070297735 12.861321291750468 86.44356076062694 1 0 0
3701 1234 2 -0.35 8.216243343252469 11.70792440396777 86.58360676310359 1 0 0
4893 1631 2 -0.35 2.6430830423083203 15.483511591492665 84.0993848447771 1 0 0
567 189 2 -0.35 4.136820663563503 15.945259525050439 87.24364075066595 0 0 0
357 119 2 -0.35 1.298020669223979 11.617504685790214 84.95114127043752 0 0 0
1602 534 2 -0.35 7.576327819553769 15.774669669485933 83.66225709240905 0 0 0
565 189 1 0.7 4.486935051843917 14.856802256564794 87.10091087119562 0 0 0
355 119 1 0.7 1.279624507359687 12.47162081967917 85.74490423732892 0 0 0
1600 534 1 0.7 7.193783716901655 16.338501447306765 84.55007713593832 0 0 0
356 119 2 -0.35 1.150676739220163 13.313058339864556 86.49151344846135 0 0 0
6381 2127 2 -0.35 19.458931330980207 1.2353937660643912 106.18251059657531 1 1 0
1822 608 1 0.7 9.592530790660723 9.12030067712189 85.08637807812414 0 1 0
4222 1408 1 0.7 2.3421143209662727 12.833197383735316 81.17934517534827 1 0 0
1802 601 2 -0.35 3.365326315230609 15.9747431892369 80.93533012643762 1 0 0
566 189 2 -0.35 4.868895077628763 13.780596696641773 86.94461200286527 0 0 0
4224 1408 2 -0.35 2.0254766690481376 13.325897812903422 82.16991484055687 1 0 0
6117 2039 2 -0.35 0.07380034676285163 5.1970916902671584 96.323594243965 1 1 0
4744 1582 1 0.7 0.11193201747046544 3.009511523558135 90.18535806135397 1 0 0
3950 1317 2 -0.35 0.9098096852724813 16.868777399884852 86.93485984086144 1 0 0
3949 1317 1 0.7 0.3393234898075095 16.177600227722372 87.66933513901978 1 0 0
3449 1150 2 -0.35 10.117090072765196 13.27887586707286 83.18760096655156 1 0 0
3448 1150 1 0.7 9.607271368784913 13.65304631669698 82.20080867862232 1 0 0
3450 1150 2 -0.35 9.181957726313698 14.035795397167416 81.16242520723227 1 0 0
2204 735 2 -0.35 10.012681285323131 16.663475440490995 85.87758731598932 0 1 0
756 252 2 -0.35 7.252399362180524 16.15077652775616 88.43215940801667 0 0 0
54 18 2 -0.35 8.826143252621517 18.15147097649481 81.16003940169794 1 -1 0
6493 2165 1 0.7 5.448398722414403 0.6227099845052985 106.76431507522143 1 1 0
378 126 2 -0.35 14.887274569775705 16.767096221450753 97.82526152739486 0 0 0
112 38 1 0.7 13.919898188955775 14.959292887345983 79.72516845478523 0 0 0
113 38 2 -0.35 14.651272039112913 14.071088124192348 79.79724386796586 0 0 0
1154 385 2 -0.35 17.24829933604517 10.648902484260157 82.71766341347694 0 0 0
1153 385 1 0.7 16.201333961971127 10.606888627438298 82.18722181044414 0 0 0
4095 1365 2 -0.35 11.747930391121429 11.5352630256263 81.25512164431083 1 0 0
4101 1367 2 -0.35 11.163656239152225 16.83260425284481 83.09208362511465 1 0 0
1757 586 2 -0.35 19.53504328754539 17.842093423661826 83.86250628137489 0 0 0
5721 1907 2 -0.35 12.641875228211543 12.248662998631756 85.37752454125382 1 1 0
5719 1907 1 0.7 11.784031168691927 12.942540716769496 85.7527038884594 1 1 0
4099 1367 1 0.7 10.722623199141548 17.86239857317832 83.36152137118877 1 0 0
5720 1907 2 -0.35 10.95412784906575 13.673367462641846 86.1060865872 1 1 0
1301 434 2 -0.35 18.83660200163573 13.509976002082826 81.60569678723652 0 0 0
1300 434 1 0.7 18.681991558529045 13.610558062082179 82.74793437792992 0 0 0
2174 725 2 -0.35 15.342901507913451 12.88571690484353 83.00158760285095 0 1 0
2519 840 2 -0.35 14.247899416761516 17.22705034441869 83.85738050195924 0 1 0
2175 725 2 -0.35 13.23289475982585 13.879788366854216 82.76974733908838 0 1 0
2173 725 1 0.7 14.287428458748945 13.373275266366502 82.89477951138181 0 1 0
3975 1325 2 -0.35 16.8187104064575 13.125476553587454 86.27373936230963 0 0 0
3974 1325 2 -0.35 16.169568742979052 11.095497714992199 85.33189343652178 0 0 0
3973 1325 1 0.7 16.512642127592265 12.090096130834947 85.8410274459246 0 0 0
3469 1157 1 0.7 16.867350375898273 17.731625640839468 83.02718626192872 1 0 0
2518 840 1 0.7 13.682260724324749 16.50608264772618 84.59076041257919 0 1 0
2520 840 2 -0.35 13.139025995414485 15.767603884518621 85.32248463990851 0 1 0
3471 1157 2 -0.35 16.806648734279754 18.61350617448607 83.73336899567396 1 0 0
3470 1157 2 -0.35 16.85181264819891 16.812057825814016 82.31932460653456 1 0 0
1302 434 2 -0.35 18.55641703574464 13.7836916265746 83.90185849955827 0 0 0
620 207 2 -0.35 17.13646127752167 16.3590260267286 86.02742756224322 0 0 0
619 207 1 0.7 16.9481342116272 16.00044235200479 87.13178982389944 0 0 0
2203 735 1 0.7 10.448191065641746 16.600602835300908 86.9266959083721 0 1 0
621 207 2 -0.35 16.692031201615862 15.713064847525464 88.20061223273514 0 0 0
6494 2165 2 -0.35 4.422487667201132 0.581008337519412 106.232067259408 1 1 0
2771 924 2 -0.35 2.9218638240773025 18.84127433772145 80.75039680137412 0 0 0
2360 787 2 -0.35 13.512173683937299 17.49894313429236 89.30238172769045 0 1 0
2205 735 2 -0.35 10.874212909042097 16.47296875027011 87.97559233753151 0 1 0
5919 1973 2 -0.35 14.241997002805963 13.795792482271555 87.88684697428303 0 1 0
4100 1367 2 -0.35 10.489960038460254 18.969053067530236 83.58507822704314 1 0 0
1841 614 2 -0.35 9.461060099078656 0.9685366269654644 90.67111840326307 0 1 0
5281 1761 1 0.7 7.695644734547478 8.404214413477149 90.21908310732806 0 0 0
6039 2013 2 -0.35 2.6736404987148035 4.973190174980666 89.43129425270611 1 1 0
5912 1971 2 -0.35 2.3421643659950986 3.665380592899509 92.43032424071474 1 1 0
1840 614 1 0.7 8.769746967018914 1.7442074529569516 90.17273415732676 0 1 0
3771 1257 2 -0.35 1.2870302410548597 2.7490368302336288 98.15875241079485 1 0 0
1545 515 2 -0.35 5.7030338555873765 6.601754258346551 91.53645227988847 0 0 0
5913 1971 2 -0.35 4.16673099189816 2.5173156786143425 91.58939967699816 1 1 0
5911 1971 1 0.7 3.2312405398367883 3.0702828674549885 91.98130950147831 1 1 0
1854 618 2 -0.35 0.031583455106043073 7.164411475853319 94.23887893581771 1 1 0
1853 618 2 -0.35 1.2452661697255716 7.167386243540113 92.24062397608036 1 1 0
6421 2141 1 0.7 8.52394806816331 4.998758658517221 96.75707547028247 1 1 0
6422 2141 2 -0.35 8.612525227131524 6.062349402092243 96.3952181673833 1 1 0
2786 929 2 -0.35 7.443360729005225 4.287991760813752 92.62681552910055 0 1 0
2785 929 1 0.7 6.40281496219713 4.393908577639482 93.1211012528571 0 1 0
5372 1791 2 -0.35 4.950969542564042 1.9555743346113243 96.7014574219988 1 1 0
2787 929 2 -0.35 5.362658034756226 4.462148543537511 93.5680295024688 0 1 0
5371 1791 1 0.7 5.272078817260484 3.0443945259736616 96.46610264126657 1 1 0
5373 1791 2 -0.35 5.604978479340583 4.130469105977801 96.25688779283352 1 1 0
3191 1064 2 -0.35 2.9165176598528886 5.994097861200034 94.91445696903273 0 1 0
3190 1064 1 0.7 2.7574239161379714 4.915639023062328 95.34889556000235 0 1 0
1544 515 2 -0.35 4.50827040823837 8.261395532829056 92.65150649950778 0 0 0
1543 515 1 0.7 5.169299767623268 7.44900083040156 92.13850891820272 0 0 0
1852 618 1 0.7 0.6931270637687391 7.199763122757288 93.26859309724229 1 1 0
3192 1064 2 -0.35 2.5897082954468202 3.855732418574187 95.80216973291294 0 1 0
559 187 1 0.7 5.657542086335823 7.521047979416466 95.73561556485265 0 0 0
560 187 2 -0.35 6.2727426398065305 7.26799948325859 94.78175532346252 0 0 0
1463 488 2 -0.35 8.72836988354453 7.8246765898824 92.79217028205767 0 0 0
561 187 2 -0.35 5.008627397127049 7.750565968665786 96.68031396189947 0 0 0
1462 488 1 0.7 9.366078267079327 8.425434602066753 93.54596084509214 0 0 0
1464 488 2 -0.35 9.830636447311026 9.071321169804888 94.38521103825393 0 0 0
2312 771 2 -0.35 7.947834660047004 0.548379672257128 97.59783055485498 0 1 0
4964 1655 2 -0.35 1.9804643593661122 8.941597098496766 97.53470274337374 1 0 0
2311 771 1 0.7 9.042308510652944 0.857750740269225 97.64737301989338 0 1 0
3581 1194 2 -0.35 2.2436622789870264 8.487461162632904 89.84313405126598 1 0 0
4963 1655 1 0.7 2.852135897363168 9.642515897414256 97.8659880445781 1 0 0
401 134 2 -0.35 2.2064521695401886 5.745951684505123 98.67073278538093 1 0 0
3769 1257 1 0.7 0.8140135931395088 2.3425670145309803 97.1956783439588 1 0 0
2451 817 2 -0.35 15.431314801234715 4.526338920754268 90.46802903474146 0 1 0
6312 2104 2 -0.35 13.262217484620644 0.18489777612542221 96.34431570631214 1 1 0
6310 2104 1 0.7 14.243354391205024 0.4236656595398046 95.7481943423931 1 1 0
2541 847 2 -0.35 10.950634402689968 7.897482794162418 89.89788030919293 0 1 0
2539 847 1 0.7 11.185242144832113 7.067086903552168 89.13940989164693 0 1 0
5899 1967 1 0.7 11.944982604186142 1.456367409381707 88.9024395647814 1 1 0
2450 817 2 -0.35 13.28578256547937 5.226834266283117 90.92191476583262 0 1 0
2449 817 1 0.7 14.37764686925641 4.915026929113974 90.74983712737476 0 1 0
5900 1967 2 -0.35 12.627076677998037 1.5459259277171729 89.81854519299465 1 1 0
6311 2104 2 -0.35 15.155303800194027 0.5963879884989155 95.06751623158739 1 1 0
6423 2141 2 -0.35 8.554127499952877 3.9037762665234843 97.14815829519561 1 1 0
3082 1028 1 0.7 10.327636236391456 1.4374439130470171 93.56883310038397 0 1 0
3084 1028 2 -0.35 9.201705929597605 1.785266949202875 93.63125791590015 0 1 0
2313 771 2 -0.35 10.131443862949912 1.1364803756616901 97.52464300011425 0 1 0
1766 589 2 -0.35 14.340315366939844 7.971350043716137 91.47448965075174 0 1 0
1765 589 1 0.7 13.835441142479075 9.010916667778377 91.68944622176961 0 1 0
3065 1022 2 -0.35 12.068034467176052 6.949263793884004 92.99754688802855 0 1 0
1340 447 2 -0.35 17.622747048525326 2.4097953739677247 91.75781036032508 0 1 0
3064 1022 1 0.7 11.952457719428581 5.821281711516625 93.34070411610695 0 1 0
3127 1043 1 0.7 14.667741882929198 4.165096696045813 96.3122240328579 0 1 0
2540 847 2 -0.35 11.332985045213427 6.182879421054207 88.38375789750397 0 1 0
1339 447 1 0.7 16.985711850966524 3.01586090604321 92.52194103363753 0 1 0
1452 484 2 -0.35 16.886380365074473 2.4754292663571684 96.31187590519902 0 0 0
3686 1229 2 -0.35 14.678750613705482 7.67382114383096 95.15092650924319 1 0 0
3066 1022 2 -0.35 11.840373482050929 4.643468678364512 93.48954666633335 0 1 0
3685 1229 1 0.7 15.704458116093964 8.0241658964678 95.51334002569014 1 0 0
1450 484 1 0.7 17.981477225161996 2.4820304348064495 95.94689940682537 0 0 0
1341 447 2 -0.35 16.290194382956997 3.5367523978042863 93.25873921396999 0 1 0
3687 1229 2 -0.35 16.73775173007978 8.296743057223384 95.9575774028614 1 0 0
3128 1043 2 -0.35 14.052073925293216 3.2456654672024676 96.01658955815084 0 1 0
3129 1043 2 -0.35 15.185493114620236 5.174653531840562 96.541565215461 0 1 0
206 69 2 -0.35 12.881624097392399 6.440476588507456 97.41325954736932 0 0 0
1637 546 2 -0.35 14.1862206290358 16.900142348391853 103.63644012531897 0 0 0
205 69 1 0.7 13.449321243508301 6.613160039645579 98.41722935809551 0 0 0
1451 484 2 -0.35 19.061882113497912 2.492593921228481 95.53805634928852 0 0 0
225 75 2 -0.35 15.180740707175584 0.718576653599703 91.65152608368864 0 1 0
3083 1028 2 -0.35 11.424681554351952 1.0415014111565497 93.43335948261193 0 1 0
207 69 2 -0.35 13.945667931478967 6.832159132447435 99.44946403376642 0 0 0
3347 1116 2 -0.35 6.678986518471968 18.76288016710439 94.92690105688072 0 0 0
3770 1257 2 -0.35 0.45311003843303865 1.8276028400431998 96.2345686162671 1 0 0
5596 1866 1 0.7 1.9267899323154376 18.51530165110701 90.34698594718182 1 0 0
3678 1226 2 -0.35 12.767298444805093 0.7133911712445128 82.14055357410359 1 1 0
5282 1761 2 -0.35 7.0790021237920655 9.182628652148011 90.78109658558546 0 0 0
4919 1640 2 -0.35 1.8961030816092102 13.952036549793998 91.62566111755616 1 0 0