units		    real
atom_style	    full
boundary        p p p
pair_style      lj/cut/coul/long 14
pair_modify     shift yes mix arithmetic tail no
kspace_style    pppm 1e-5
bond_style      harmonic
angle_style     harmonic
processors      2 2 *

#----------------------------------------------------------------------------#
#                               Variables
#----------------------------------------------------------------------------#

variable  TEMP_INDEX       equal 220
variable  simulationTemp   equal ${TEMP_INDEX}
variable  simulationTemp   equal 220
variable  timestep         equal 0.5
variable  RandomSeed       equal 1000
variable  Seed_L           equal ${RandomSeed}*7
variable  Seed_L           equal 1000*7
variable  Seed_V1          equal ${RandomSeed}*2
variable  Seed_V1          equal 1000*2
variable  Seed_V2          equal ${RandomSeed}*5
variable  Seed_V2          equal 1000*5

variable  nz_bin           equal 100
variable  bin_size         equal 1/${nz_bin}
variable  bin_size         equal 1/100
variable  restartfreq      equal 2000000        # 1 ns
variable  balance_freq     equal 8000000        # 4 ns
variable  thermo_num       equal 1000
variable  Lz               equal lz
variable  TEMPERATURE      equal temp
variable  PRESSURE         equal press
variable  KE               equal ke
variable  PE               equal pe
variable  TOT_ENG          equal etotal
variable  ECOUPLE          equal ecouple
variable  ECONSERVE        equal econserve
variable  Nnvt             equal 2000000     # 1 ns

#----------------------------------------------------------------------------#
#                        Simulation cell creation
#----------------------------------------------------------------------------#

region          box block 0 40 0 40 0 240

create_box      2 box                                       bond/types 1                                angle/types 1                               extra/bond/per/atom 2                       extra/angle/per/atom 1                      extra/special/per/atom 2
Created orthogonal box = (0 0 0) to (40 40 240)
  2 by 2 by 6 MPI processor grid

molecule        co2mol CO2.mol
Read molecule template co2mol:
# CO2 molecule file. TraPPE-Flex model.
  1 molecules
  0 fragments
  3 atoms with max type 2
  2 bonds with max type 1
  1 angles with max type 1
  0 dihedrals with max type 0
  0 impropers with max type 0
print           "Molecule file loaded successfully"
Molecule file loaded successfully

region          liquid  block 0 40 0 40 75 165
region          vapor_1 block 0 40 0 40 0 75
region          vapor_2 block 0 40 0 40 165 240

create_atoms   	0 random 2298 ${Seed_L}  liquid  mol co2mol 3 overlap 2 maxtry 10000
create_atoms   	0 random 2298 7000  liquid  mol co2mol 3 overlap 2 maxtry 10000
Created 6894 atoms
  using lattice units in orthogonal box = (0 0 0) to (40 40 240)
  create_atoms CPU = 0.265 seconds
create_atoms   	0 random 26 ${Seed_V1} vapor_1 mol co2mol 3 overlap 2 maxtry 10000
create_atoms   	0 random 26 2000 vapor_1 mol co2mol 3 overlap 2 maxtry 10000
Created 78 atoms
  using lattice units in orthogonal box = (0 0 0) to (40 40 240)
  create_atoms CPU = 0.005 seconds
create_atoms   	0 random 26 ${Seed_V2} vapor_2 mol co2mol 3 overlap 2 maxtry 10000
create_atoms   	0 random 26 5000 vapor_2 mol co2mol 3 overlap 2 maxtry 10000
Created 78 atoms
  using lattice units in orthogonal box = (0 0 0) to (40 40 240)
  create_atoms CPU = 0.005 seconds

include         trappe_flex.FF
#----------------------------------------------------------------------------#
# FORCEFIELD - TraPPE Flexible model for CO2 (DOI- 10.1021/acs.jced.9b00006)
#----------------------------------------------------------------------------#

pair_coeff      1   1  0.0536545107   2.8         # O=[C]=O
pair_coeff      2   2  0.1569891239   3.05        # [O]=C=O

bond_coeff      1   1028.266  1.16

angle_coeff     1   55.96  180

mass            1   12.010700                     # C
mass            2   15.999400                     # O

set type        1   charge     +0.7000            # C
Setting atom values ...
  2350 settings made for charge
set type        2   charge     -0.3500            # O
Setting atom values ...
  4700 settings made for charge
# read_restart   restart_CO2.2

print           "lz=${Lz}"
lz=240

#----------------------------------------------------------------------------#
#                           GROUPS / NEIGHBOUR-LIST / BALANCE
#----------------------------------------------------------------------------#

group           car  type 1
2350 atoms in group car
group           oxy  type 2
4700 atoms in group oxy

neighbor	    3.0 bin
neigh_modify    every 1 delay 0 check yes
run_style       verlet
balance         0.8 shift xyz 20 1.2 out tmp.balance
Balancing ...
PPPM initialization ...
  using 12-bit tables for long-range coulomb (src/kspace.cpp:342)
  G vector (1/distance) = 0.20169663
  grid = 24 24 80
  stencil order = 5
  estimated absolute RMS force accuracy = 0.00286774
  estimated relative force accuracy = 8.6361139e-06
  using single precision FFTW3
  3d grid and FFT values/proc = 7220 2304
Generated 1 of 1 mixed pair_coeff terms from arithmetic mixing rule
Last active /omp style is kspace_style pppm/omp
Neighbor list info ...
  update: every = 1 steps, delay = 0 steps, check = yes
  max neighbors/atom: 2000, page size: 100000
  master list distance cutoff = 17
  ghost atom cutoff = 17
  binsize = 8.5, bins = 5 5 29
  1 neighbor lists, perpetual/occasional/extra = 1 0 0
  (1) pair lj/cut/coul/long/omp, perpetual
      attributes: half, newton on, omp
      pair build: half/bin/newton/omp
      stencil: half/bin/3d
      bin: standard
 rebalancing time: 0.011 seconds
  iteration count = 14
  initial/final maximal load/proc = 795 333
  initial/final imbalance factor  = 2.706383 1.133617
  x cuts: 0 0.46875 1
  y cuts: 0 0.46875 1
  z cuts: 0 0.36979167 0.43489583 0.49739583 0.56510417 0.63020833 1

#----------------------------------------------------------------------------#
#                           CONGUGATE-GRADIENT MINIMIZATION/Initialization
#----------------------------------------------------------------------------#

minimize        1e-6 1e-8 100000 10000000
PPPM initialization ...
  using 12-bit tables for long-range coulomb (src/kspace.cpp:342)
  G vector (1/distance) = 0.20169663
  grid = 24 24 80
  stencil order = 5
  estimated absolute RMS force accuracy = 0.00286774
  estimated relative force accuracy = 8.6361139e-06
  using single precision FFTW3
  3d grid and FFT values/proc = 14400 5070
Generated 1 of 1 mixed pair_coeff terms from arithmetic mixing rule
Last active /omp style is kspace_style pppm/omp
Per MPI rank memory allocation (min/avg/max) = 9.054 | 9.269 | 9.629 Mbytes
   Step          Temp          E_pair         E_mol          TotEng         Press     
         0   0              49336.872      7.9026918e-12  49336.872      43177.231    
      3320   0             -12043.225      22.75228      -12020.472     -266.43419    
Loop time of 38.6558 on 24 procs for 3320 steps with 7050 atoms

99.4% CPU use with 24 MPI tasks x 1 OpenMP threads

Minimization stats:
  Stopping criterion = energy tolerance
  Energy initial, next-to-last, final = 
       49336.871548504  -12020.4614728394  -12020.4724115919
  Force two-norm initial, final = 12256.268 6.1250069
  Force max component initial, final = 805.65186 0.88171651
  Final line search alpha, max atom move = 0.064419604 0.056799828
  Iterations, force evaluations = 3320 6605

MPI task timing breakdown:
Section |  min time  |  avg time  |  max time  |%varavg| %total
---------------------------------------------------------------
Pair    | 6.06       | 21.653     | 32.519     | 177.7 | 56.01
Bond    | 0.050413   | 0.071799   | 0.08917    |   4.7 |  0.19
Kspace  | 4.3781     | 15.276     | 30.887     | 212.5 | 39.52
Neigh   | 0.21731    | 0.2185     | 0.22       |   0.1 |  0.57
Comm    | 0.87034    | 1.1091     | 1.3056     |  12.0 |  2.87
Output  | 0          | 0          | 0          |   0.0 |  0.00
Modify  | 0.026767   | 0.039538   | 0.053823   |   4.7 |  0.10
Other   |            | 0.2883     |            |       |  0.75

Nlocal:         293.75 ave         438 max         116 min
Histogram: 8 0 0 0 0 0 3 5 6 2
Nghost:        6101.58 ave        8831 max        3692 min
Histogram: 7 1 0 1 5 2 0 1 4 3
Neighs:         161847 ave      279754 max       20864 min
Histogram: 4 4 0 0 0 0 5 6 3 2

Total # of neighbors = 3884327
Ave neighs/atom = 550.96837
Ave special neighs/atom = 2
Neighbor list builds = 36
Dangerous builds = 0
fix             COM_DRIFT all momentum 1 linear 1 1 1 rescale
velocity        all create ${simulationTemp} ${RandomSeed} mom yes rot yes dist gaussian
velocity        all create 220 ${RandomSeed} mom yes rot yes dist gaussian
velocity        all create 220 1000 mom yes rot yes dist gaussian
velocity        all zero linear
velocity        all zero angular
thermo_style    custom step etotal press temp dt
thermo_modify   flush yes
thermo          ${thermo_num}
thermo          1000
reset_timestep  0
write_data      ${NAME}_init.data
write_data      CO2_init.data
System init for write_data ...
PPPM initialization ...
  using 12-bit tables for long-range coulomb (src/kspace.cpp:342)
  G vector (1/distance) = 0.20169663
  grid = 24 24 80
  stencil order = 5
  estimated absolute RMS force accuracy = 0.00286774
  estimated relative force accuracy = 8.6361139e-06
  using single precision FFTW3
  3d grid and FFT values/proc = 14400 5070
Generated 1 of 1 mixed pair_coeff terms from arithmetic mixing rule
Last active /omp style is kspace_style pppm/omp

#----------------------------------------------------------------------------#
#                           Compute
#----------------------------------------------------------------------------#

compute         layers  all chunk/atom bin/1d z lower ${bin_size} units reduced
compute         layers  all chunk/atom bin/1d z lower 0.01 units reduced
compute         T       all temp
compute         pTensor all pressure T
compute         mom     all momentum

variable        TM      equal mass(all)
variable        vx_com  equal c_mom[1]/v_TM
variable        vy_com  equal c_mom[2]/v_TM
variable        vz_com  equal c_mom[3]/v_TM

#----------------------------------------------------------------------------#
#                           Write Headers to Files
#----------------------------------------------------------------------------#

print "#Step Pxx Pyy Pzz" file pressure_tensor.dat
#Step Pxx Pyy Pzz
print "#Step temp press ke pe etotal ecouple econserve" file Energy.dat
#Step temp press ke pe etotal ecouple econserve
print "#Step px py pz COM_vx COM_vy COM_vz" file Momentum.dat
#Step px py pz COM_vx COM_vy COM_vz

#----------------------------------------------------------------------------#
#                           NVT (Initialization/Production)
#----------------------------------------------------------------------------#

fix             NVE          all    nve
fix             NVT          all    temp/csvr  ${simulationTemp} ${simulationTemp} 100 ${RandomSeed}
fix             NVT          all    temp/csvr  220 ${simulationTemp} 100 ${RandomSeed}
fix             NVT          all    temp/csvr  220 220 100 ${RandomSeed}
fix             NVT          all    temp/csvr  220 220 100 1000
fix             CPU_BALANCE  all    balance    ${balance_freq} 0.8 shift xyz 20 1.2
fix             CPU_BALANCE  all    balance    8000000 0.8 shift xyz 20 1.2
fix		        dens_profile all    ave/chunk  10 100 1000 layers density/mass file massdens_profile.dat
fix             1            all    ave/time   10 100 1000 c_pTensor[1] c_pTensor[2] c_pTensor[3] file pressure_tensor.dat
fix             2            all    ave/time   ${thermo_num} 1 ${thermo_num} v_TEMPERATURE v_PRESSURE v_KE v_PE v_TOT_ENG v_ECOUPLE v_ECONSERVE file Energy.dat
fix             2            all    ave/time   1000 1 ${thermo_num} v_TEMPERATURE v_PRESSURE v_KE v_PE v_TOT_ENG v_ECOUPLE v_ECONSERVE file Energy.dat
fix             2            all    ave/time   1000 1 1000 v_TEMPERATURE v_PRESSURE v_KE v_PE v_TOT_ENG v_ECOUPLE v_ECONSERVE file Energy.dat
fix             3            all    ave/time   ${thermo_num} 1 ${thermo_num} c_mom[1] c_mom[2] c_mom[3] v_vx_com v_vy_com v_vz_com file Momentum.dat
fix             3            all    ave/time   1000 1 ${thermo_num} c_mom[1] c_mom[2] c_mom[3] v_vx_com v_vy_com v_vz_com file Momentum.dat
fix             3            all    ave/time   1000 1 1000 c_mom[1] c_mom[2] c_mom[3] v_vx_com v_vy_com v_vz_com file Momentum.dat

timestep        0.5
restart         ${restartfreq} restart_${NAME}.1 restart_${NAME}.2
restart         2000000 restart_${NAME}.1 restart_${NAME}.2
restart         2000000 restart_CO2.1 restart_${NAME}.2
restart         2000000 restart_CO2.1 restart_CO2.2
run             ${Nnvt}
run             2000000
PPPM initialization ...
  using 12-bit tables for long-range coulomb (src/kspace.cpp:342)
  G vector (1/distance) = 0.20169663
  grid = 24 24 80
  stencil order = 5
  estimated absolute RMS force accuracy = 0.00286774
  estimated relative force accuracy = 8.6361139e-06
  using single precision FFTW3
  3d grid and FFT values/proc = 14400 5070
Generated 1 of 1 mixed pair_coeff terms from arithmetic mixing rule
Last active /omp style is kspace_style pppm/omp
Per MPI rank memory allocation (min/avg/max) = 8.311 | 8.655 | 8.84 Mbytes
   Step         TotEng         Press           Temp            Dt      
         0  -7397.8918      283.84884      220            0.5          
      1000  -3371.8417      1615.4668      220.60374      0.5          
      2000  -2797.0238      1634.8613      198.19242      0.5          
      3000  -2369.6986     -261.94725      211.54374      0.5          
      4000  -2285.8351      188.37315      226.41104      0.5          
      5000  -2186.3575      317.14526      222.11886      0.5          
      6000  -1860.6713     -133.24939      215.1469       0.5          
      7000  -1738.3191     -260.08028      213.12119      0.5          
      8000  -1562.6384     -262.92232      216.11222      0.5          
      9000  -1230.949      -174.80777      222.77882      0.5          
     10000  -1024.4433     -202.93373      217.1186       0.5          
     11000  -798.62982     -254.4175       218.76225      0.5          
     12000  -780.79216     -305.9522       218.75388      0.5          
     13000  -616.91754     -440.99608      222.97167      0.5          
     14000  -640.72937     -56.314899      224.69089      0.5          
     15000  -613.39182      159.41538      220.98856      0.5          
     16000  -682.4728      -319.26171      219.67638      0.5          
     17000  -706.95366     -225.69967      221.48348      0.5          
     18000  -791.38254      101.36889      221.39818      0.5          
     19000  -814.02389      13.428697      218.13502      0.5          
     20000  -888.34982      5.8944565      220.14457      0.5          
     21000  -1075.5143     -149.38135      218.35566      0.5          
     22000  -1073.1743     -42.733092      219.75567      0.5          
     23000  -1131.6794      105.45004      216.87713      0.5          
     24000  -1089.8119      31.989295      216.50518      0.5          
     25000  -990.35306     -0.26799917     218.74417      0.5          
     26000  -949.13061      137.80883      218.88071      0.5          
     27000  -925.1612       175.2149       219.86626      0.5          
     28000  -951.46183     -99.420737      220.10538      0.5          
     29000  -892.18543     -143.91857      218.70374      0.5          
     30000  -984.26574      87.137238      216.77144      0.5          
     31000  -768.28835      205.10605      220.93865      0.5          
     32000  -918.45058     -318.28008      217.97168      0.5          
     33000  -945.74952     -154.4533       217.56617      0.5          
     34000  -780.62134      103.3496       223.61199      0.5          
     35000  -829.90859     -11.213112      220.67452      0.5          
     36000  -924.90865     -221.53691      215.20321      0.5          
     37000  -908.86602      88.602704      215.98129      0.5          
     38000  -791.95373      104.5565       219.72701      0.5          
     39000  -790.31983     -69.800335      219.59577      0.5          
     40000  -829.63036     -214.34069      218.60389      0.5          
     41000  -816.44012     -138.47741      222.00143      0.5          
     42000  -773.1837      -313.43732      223.40216      0.5          
     43000  -718.26964      77.385559      224.80309      0.5          
     44000  -846.482        289.68036      219.9207       0.5          
     45000  -836.78071     -92.072194      220.52725      0.5          
     46000  -786.80657     -314.4771       221.59604      0.5          
     47000  -729.80101      1.7017745      218.55535      0.5          
     48000  -769.12199      190.40633      220.90477      0.5          
     49000  -741.76976     -44.009776      221.41215      0.5          
     50000  -746.88733      216.11585      220.29588      0.5          
     51000  -858.59077     -65.498085      214.39679      0.5          
     52000  -817.40822     -170.72466      220.41049      0.5          
     53000  -814.57912     -237.02961      219.11307      0.5          
     54000  -749.28787      39.993594      221.278        0.5          
     55000  -925.16495     -154.83934      215.01778      0.5          
     56000  -863.2591       115.59126      218.55793      0.5          
     57000  -749.27665      90.637077      219.68168      0.5          
     58000  -718.06738     -4.5015303      222.85997      0.5          
     59000  -798.56508     -74.299466      217.08445      0.5          
     60000  -884.74941      2.9946378      216.96318      0.5          
     61000  -753.34395      32.24274       220.69368      0.5          
     62000  -775.97856     -212.32749      217.71073      0.5          
     63000  -831.63511     -74.483973      219.66149      0.5          
     64000  -654.93155      45.955926      222.18012      0.5          
     65000  -724.59262      97.28734       220.10024      0.5          
     66000  -828.28296     -114.14468      218.44582      0.5          
     67000  -891.76361     -178.72656      216.99615      0.5          
     68000  -886.1884       51.960214      216.26491      0.5          
     69000  -780.26023     -88.498296      219.31618      0.5          
     70000  -744.6614      -101.76466      220.51228      0.5          
     71000  -703.38505      127.33267      224.3686       0.5          
     72000  -754.16847     -34.780297      219.40201      0.5          
     73000  -799.28252     -210.68372      217.20934      0.5          
     74000  -661.3742       30.04107       224.90605      0.5          
     75000  -817.49376      29.844919      219.28339      0.5          
     76000  -857.61781      26.569353      216.03665      0.5          
     77000  -830.15307      58.601197      215.77628      0.5          
     78000  -743.49032      68.958118      219.74183      0.5          
     79000  -776.68782     -86.22574       217.65382      0.5          
     80000  -784.59499      22.412734      223.03385      0.5          
     81000  -802.11583      21.92694       217.5022       0.5          
     82000  -726.77948      204.61185      223.66358      0.5          
     83000  -759.50069      122.18244      218.64343      0.5          
     84000  -775.68431     -213.88022      219.69868      0.5          
     85000  -746.30143     -355.40845      220.43739      0.5          
     86000  -833.79293      29.393243      216.8949       0.5          
     87000  -678.83917     -13.51972       222.74427      0.5          
     88000  -704.66642     -337.70417      221.30221      0.5          
     89000  -693.44092     -13.064904      217.89857      0.5          
     90000  -720.92805      17.747643      219.93447      0.5          
     91000  -691.72236      50.473585      219.31248      0.5          
     92000  -674.33454      56.940234      221.87933      0.5          
     93000  -760.58927      75.142041      220.42864      0.5          
     94000  -772.26694     -101.34959      217.90707      0.5          
     95000  -785.92238     -158.87277      218.67272      0.5          
     96000  -825.56487     -134.73571      219.9789       0.5          
     97000  -714.39228     -133.52676      219.8227       0.5          
     98000  -661.78221      66.697146      222.3386       0.5          
     99000  -794.72403     -140.92012      219.24777      0.5          
    100000  -883.62678     -112.96501      217.53376      0.5          
    101000  -843.34695     -87.269451      223.84224      0.5          
    102000  -911.43973      133.43856      219.10659      0.5          
    103000  -764.6699       78.804291      222.02254      0.5          
    104000  -783.55247     -259.2535       221.29199      0.5          
    105000  -814.91032     -10.506739      219.16953      0.5          
    106000  -841.89596      73.662373      217.1206       0.5          
    107000  -809.10945     -22.790085      220.86769      0.5          
    108000  -716.89623      76.226255      221.34716      0.5          
    109000  -798.36838      60.316823      219.22615      0.5          
    110000  -777.38662     -166.83661      219.55059      0.5          
    111000  -728.01696     -111.04682      220.11613      0.5          
    112000  -797.0307       57.922609      221.2558       0.5          
    113000  -915.88738     -336.75714      217.50582      0.5          
    114000  -653.31506     -7.969186       220.09423      0.5          
    115000  -760.81371      103.24193      222.16192      0.5          
    116000  -727.02752     -99.057843      220.33108      0.5          
    117000  -690.74462     -3.7024062      222.07016      0.5          
    118000  -833.56471     -65.247791      218.99843      0.5          
    119000  -785.96556     -208.96736      220.4512       0.5          
    120000  -734.12676      70.374296      224.12832      0.5          
    121000  -765.95931     -31.434885      221.04078      0.5          
    122000  -806.55597      50.653676      220.16448      0.5          
    123000  -618.3878       309.93526      222.61103      0.5          
    124000  -769.07434     -104.7868       221.05524      0.5          
    125000  -788.28722     -373.29432      219.9487       0.5          
    126000  -783.88148     -124.16273      218.90473      0.5          
    127000  -837.02035      97.28885       218.93302      0.5          
    128000  -737.65804      160.39975      218.82966      0.5          
    129000  -870.16717     -127.07867      218.20912      0.5          
    130000  -669.29247      7.1267001      224.08679      0.5          
    131000  -639.59973      100.34254      228.30234      0.5          
    132000  -845.90706     -190.70414      218.92156      0.5          
    133000  -895.52176     -10.806702      220.01748      0.5          
    134000  -988.24728     -66.625625      217.46441      0.5          
    135000  -898.81539      176.34146      218.32864      0.5          
    136000  -779.51637     -68.350491      223.39733      0.5          
    137000  -778.45025      54.20686       219.92059      0.5          
    138000  -844.73206      82.392809      220.69575      0.5          
    139000  -748.16289     -82.835403      221.8543       0.5          
    140000  -677.18545     -227.38428      223.01416      0.5          
    141000  -762.77836     -140.68275      220.44819      0.5          
    142000  -813.46895      68.933836      221.64282      0.5          
    143000  -878.53651     -60.603821      217.78062      0.5          
    144000  -676.70859      177.9454       220.69579      0.5          
    145000  -835.41728     -1.209095       217.88802      0.5          
    146000  -828.18192     -200.03728      220.06176      0.5          
    147000  -796.72961     -248.89392      223.01255      0.5          
    148000  -756.44516     -118.36625      223.62017      0.5          
    149000  -741.90828      218.21577      224.60088      0.5          
    150000  -925.20803     -186.67751      221.11437      0.5          
    151000  -883.57087      284.59316      225.32249      0.5          
    152000  -1012.5672      7.0845032      221.82802      0.5          
    153000  -1168.6889     -372.13863      219.59066      0.5          
    154000  -1188.0471      296.7918       218.0112       0.5          
    155000  -1224.992       43.800937      220.69224      0.5          
    156000  -1264.657      -11.62067       219.06555      0.5          
    157000  -1330.9073      171.0529       218.5446       0.5          
    158000  -1244.0546      341.2489       223.57311      0.5          
    159000  -1368.4003      46.627661      219.68245      0.5          
    160000  -1369.7708      112.37182      217.98056      0.5          
    161000  -1334.8272      210.88765      217.18681      0.5          
    162000  -1218.8361      174.44284      222.87838      0.5          
    163000  -1222.6523      29.741679      220.69311      0.5          
    164000  -1167.3408     -41.650044      221.93421      0.5          
    165000  -1173.9485      258.34778      222.67395      0.5          
    166000  -1149.7366     -31.603331      220.21326      0.5          
    167000  -1227.6265      250.95541      218.67673      0.5          
    168000  -1145.949      -12.802631      219.61895      0.5          
    169000  -966.62757     -229.09842      222.81979      0.5          
    170000  -1034.9002      257.21585      219.93562      0.5          
    171000  -998.54798     -53.198615      220.99893      0.5          
    172000  -934.59474     -146.6159       222.09109      0.5          
    173000  -922.89567      162.86861      219.27091      0.5          
    174000  -847.33824     -271.14176      218.27013      0.5          
    175000  -785.26679     -184.89967      222.96041      0.5          
    176000  -765.40365     -276.75893      219.26452      0.5          
    177000  -792.40138     -158.82987      220.15795      0.5          
    178000  -824.75493     -145.69439      221.26155      0.5          
    179000  -728.31909     -402.82121      220.20855      0.5          
    180000  -774.71169     -65.440655      216.06564      0.5          
    181000  -731.0738       127.07528      220.2036       0.5          
    182000  -763.07579     -349.94214      220.51605      0.5          
    183000  -782.38828     -106.49376      219.52308      0.5          
    184000  -797.42363      59.259758      222.0246       0.5          
    185000  -770.56437     -22.706696      222.04927      0.5          
    186000  -751.42328     -92.839448      222.35037      0.5          
    187000  -887.55043     -64.31228       219.48095      0.5          
    188000  -819.89369     -191.80412      221.24159      0.5          
    189000  -928.52915      165.4113       220.93138      0.5          
    190000  -985.81451     -50.762858      216.56206      0.5          
    191000  -1032.3614     -203.41645      220.27866      0.5          
    192000  -993.8755      -85.999134      218.75866      0.5          
    193000  -908.66103      53.723156      222.80305      0.5          
    194000  -897.12355      104.88483      224.95073      0.5          
    195000  -1063.8337      105.56248      219.03477      0.5          
    196000  -1086.9564      118.35946      221.85983      0.5          
    197000  -1105.9133     -192.47852      218.00877      0.5          
    198000  -1102.561       124.29642      221.71963      0.5          
    199000  -1158.9537      190.71177      218.22947      0.5          
    200000  -1134.3331     -2.9987286      222.9458       0.5          
    201000  -1188.7466     -14.981398      220.46342      0.5          
    202000  -1178.0161      79.267374      221.40746      0.5          
    203000  -1138.3547     -46.78072       218.05619      0.5          
    204000  -1145.4615     -14.589753      219.9475       0.5          
    205000  -1048.322       226.60174      221.53449      0.5          
    206000  -1012.4452      87.916466      222.42935      0.5          
    207000  -1136.3222     -208.33459      217.37         0.5          
    208000  -1046.2621     -62.654174      220.39275      0.5          
    209000  -1053.2478      219.88143      216.90324      0.5          
    210000  -988.70164     -132.15242      220.5054       0.5          
    211000  -1015.8257     -98.131874      218.37043      0.5          
    212000  -880.25852     -127.11422      219.86699      0.5          
    213000  -854.30609     -67.709943      219.40759      0.5          
    214000  -969.41766     -138.4883       215.34507      0.5          
    215000  -811.02648     -243.17892      220.65268      0.5          
    216000  -846.69498      16.769695      218.30788      0.5          
    217000  -803.95307     -69.510928      221.88678      0.5          
    218000  -794.56522      154.48037      221.39597      0.5          
    219000  -959.09502     -36.73005       217.31146      0.5          
    220000  -812.23104     -109.65149      219.08772      0.5          
    221000  -826.49392      164.76126      220.4921       0.5          
    222000  -876.67314     -195.89535      220.74603      0.5          
    223000  -800.66242     -215.20898      220.87338      0.5          
    224000  -825.14149     -65.216528      216.65596      0.5          
    225000  -825.59087     -46.033653      221.65442      0.5          
    226000  -855.1298       132.82767      217.76011      0.5          
    227000  -838.117        87.292926      221.34048      0.5          
    228000  -1014.0484      137.99085      216.06322      0.5          
    229000  -949.01002     -136.69452      221.10932      0.5          
    230000  -941.06774     -114.81508      220.19076      0.5          
    231000  -986.30685      68.498643      219.67641      0.5          
    232000  -937.41346     -22.363407      224.496        0.5          
    233000  -1009.2211     -0.56232641     219.61705      0.5          
    234000  -1072.1243      129.22498      217.76643      0.5          
    235000  -1010.8647      192.61399      221.74154      0.5          
    236000  -992.44444      13.815588      220.32682      0.5          
    237000  -1092.8072     -247.77287      218.70789      0.5          
    238000  -1069.2421      106.11114      220.43695      0.5          
    239000  -1096.6005      176.77971      220.24233      0.5          
    240000  -971.26588      150.49689      222.98396      0.5          
    241000  -984.14082      7.1778902      221.26088      0.5          
    242000  -1085.8764      175.56799      218.17198      0.5          
    243000  -1004.7992      125.28499      219.75606      0.5          
    244000  -967.54201      14.187875      222.11555      0.5          
    245000  -968.44125     -192.0151       224.40737      0.5          
    246000  -1112.6541      39.742433      218.97889      0.5          
    247000  -993.20627     -82.922073      220.11025      0.5          
    248000  -1032.1031     -38.673417      218.5065       0.5          
    249000  -985.17271      82.977825      220.64219      0.5          
    250000  -951.46298     -78.183368      220.53153      0.5          
    251000  -1039.0049     -73.693215      215.42178      0.5          
    252000  -1015.6997     -237.57935      217.13155      0.5          
    253000  -964.68731     -38.557015      220.75988      0.5          
    254000  -909.39757     -13.92727       222.09558      0.5          
    255000  -1020.7427     -6.0360865      220.00271      0.5          
    256000  -898.15805      38.081408      221.53465      0.5          
    257000  -806.64036      131.76009      225.00945      0.5          
    258000  -881.1983       25.748537      220.06938      0.5          
    259000  -945.00661     -245.49198      222.65019      0.5          
    260000  -968.79771     -147.58067      218.65516      0.5          
    261000  -951.13776      124.82513      217.4742       0.5          
    262000  -875.45975      200.40554      221.02953      0.5          
    263000  -785.14219     -127.49889      220.38323      0.5          
    264000  -779.73256     -115.12014      221.06273      0.5          
    265000  -844.73297      17.135335      218.96651      0.5          
    266000  -946.9095       180.59058      215.54015      0.5          
    267000  -887.53953      85.6225        219.96953      0.5          
    268000  -840.7546       100.38536      219.4433       0.5          
    269000  -847.71061      33.039432      222.94524      0.5          
    270000  -878.49837     -259.42666      222.96604      0.5          
    271000  -786.72409     -80.533837      223.99673      0.5          
    272000  -889.09114      46.000774      216.97421      0.5          
    273000  -959.8203      -349.86143      219.43194      0.5          
    274000  -965.5163      -13.78708       218.06007      0.5          
    275000  -886.84733      107.15779      221.09883      0.5          
    276000  -984.49712      143.89551      218.5108       0.5          
    277000  -806.46693      83.555477      223.95538      0.5          
    278000  -919.33015     -106.55472      220.23839      0.5          
    279000  -901.46962      87.014962      219.88642      0.5          
    280000  -1042.3067      157.57762      216.71359      0.5          
    281000  -992.44014      100.48566      222.09676      0.5          
    282000  -1140.8298     -318.15766      218.05853      0.5          
    283000  -955.30238     -345.01896      220.39391      0.5          
    284000  -1051.111       145.72299      218.49927      0.5          
    285000  -900.6448       276.70552      221.99885      0.5          
    286000  -1048.2785     -176.68845      219.8075       0.5          
    287000  -890.14        -213.91216      224.50178      0.5          
    288000  -935.14765     -115.34425      220.85644      0.5          
    289000  -1003.855      -176.57854      219.73721      0.5          
    290000  -1122.8635      56.134474      221.36544      0.5          
    291000  -975.06355     -182.78598      221.10087      0.5          
    292000  -1008.235      -196.74681      219.76512      0.5          
    293000  -1002.356       202.85286      219.08021      0.5          
    294000  -1132.4857     -10.406003      219.21941      0.5          
    295000  -989.39701     -341.09945      218.21478      0.5          
    296000  -942.74911     -82.866037      219.53111      0.5          
    297000  -1015.2455      19.120294      215.56493      0.5          
    298000  -931.01035      11.239024      219.59729      0.5          
    299000  -973.78328     -278.29008      217.27557      0.5          
    300000  -794.61623      187.62569      222.90512      0.5          
    301000  -993.51959     -47.022403      217.4537       0.5          
    302000  -885.4873      -143.02921      220.81797      0.5          
    303000  -933.16974      169.99127      219.41196      0.5          
    304000  -913.83825     -61.269448      219.02471      0.5          
    305000  -881.68735     -351.01514      219.37464      0.5          
    306000  -907.55635      39.862492      219.39768      0.5          
    307000  -930.13764     -9.8637131      218.3704       0.5          
    308000  -965.84263      87.439843      219.03107      0.5          
    309000  -893.8411       36.301663      219.49867      0.5          
    310000  -868.59997     -75.303383      221.20209      0.5          
    311000  -956.67477     -159.18096      220.30205      0.5          
    312000  -864.99361     -295.65009      221.01924      0.5          
    313000  -889.12975      137.79268      222.9004       0.5          
    314000  -858.54797     -36.49979       220.85998      0.5          
    315000  -757.8357       96.506374      223.63489      0.5          
    316000  -864.92751      160.39989      222.83976      0.5          
    317000  -769.48475     -108.65235      223.52349      0.5          
    318000  -867.67631      70.316555      221.97915      0.5          
    319000  -885.7558       173.78861      219.26568      0.5          
    320000  -870.94859      0.84020605     221.883        0.5          
    321000  -963.707        230.59255      220.59934      0.5          
    322000  -956.31618      83.3182        219.64732      0.5          
    323000  -986.7363      -220.07814      217.14402      0.5          
    324000  -888.68927      345.67181      220.8915       0.5          
    325000  -1009.3197      103.55991      218.34593      0.5          
    326000  -1017.3708     -381.6          217.5596       0.5          
    327000  -958.91974     -27.632352      216.68379      0.5          
    328000  -843.57553      43.725889      221.96049      0.5          
    329000  -888.77112     -199.14526      219.43878      0.5          
    330000  -874.94797      7.2246061      219.99079      0.5          
    331000  -807.2405       146.91189      222.85439      0.5          
    332000  -1024.6727     -281.34019      217.88961      0.5          
    333000  -1049.6308      102.04928      218.12042      0.5          
    334000  -965.54627     -57.759831      219.72389      0.5          
    335000  -974.28065     -29.434526      220.88144      0.5          
    336000  -908.31717     -98.760478      222.01565      0.5          
    337000  -960.64989      113.47099      219.6814       0.5          
    338000  -1012.179       106.21017      218.30153      0.5          
    339000  -855.81925     -10.214487      222.36852      0.5          
    340000  -924.62161     -30.852994      221.43906      0.5          
    341000  -919.48469      175.74425      221.4457       0.5          
    342000  -985.27944      90.102973      219.26794      0.5          
    343000  -1001.1755      20.68739       219.43585      0.5          
    344000  -1079.8195      76.409678      217.7168       0.5          
    345000  -937.15067      85.832299      220.07043      0.5          
    346000  -911.14722      85.899564      224.51187      0.5          
    347000  -991.20743     -46.727975      220.89589      0.5          
    348000  -1004.5584     -106.90953      217.13117      0.5          
    349000  -1025.5935     -132.21213      216.67564      0.5          
    350000  -939.06875      293.37109      218.71302      0.5          
    351000  -986.6521       40.023176      217.12536      0.5          
    352000  -1002.7174     -450.24431      216.69286      0.5          
    353000  -916.35792      166.50685      223.28012      0.5          
    354000  -758.22908      102.84611      224.56067      0.5          
    355000  -822.60547      59.38081       222.87897      0.5          
    356000  -884.84891     -326.87448      223.41552      0.5          
    357000  -873.31634      209.33221      222.9851       0.5          
    358000  -972.49746      13.967008      221.36952      0.5          
    359000  -928.33225     -42.980461      219.24416      0.5          
    360000  -901.09249      263.78667      221.33424      0.5          
    361000  -933.56683     -206.44845      220.93384      0.5          
    362000  -835.72595     -144.72347      220.91706      0.5          
    363000  -892.23257      204.89381      222.17097      0.5          
    364000  -878.02109      249.17667      220.82931      0.5          
    365000  -940.24912     -148.52294      219.92333      0.5          
    366000  -942.25663     -180.07892      221.80603      0.5          
    367000  -1019.5125     -157.91937      216.39758      0.5          
    368000  -1037.5978      21.40938       217.92377      0.5          
    369000  -926.85884      135.44139      218.00942      0.5          
    370000  -883.80985     -119.35812      220.49389      0.5          
    371000  -801.16429     -33.038214      223.01147      0.5          
    372000  -967.74847     -49.845528      219.97225      0.5          
    373000  -929.85869     -308.08848      221.16773      0.5          
    374000  -962.23189     -9.7118057      216.2328       0.5          
    375000  -871.47738      32.970091      220.736        0.5          
    376000  -882.64772     -7.7083165      222.0486       0.5          
    377000  -893.67908     -72.899777      221.43325      0.5          
    378000  -1006.9424     -195.78297      220.83784      0.5          
    379000  -973.23071      52.166226      218.00973      0.5          
    380000  -948.5739       3.8117036      221.38374      0.5          
    381000  -932.56846      14.826678      225.7585       0.5          
    382000  -1097.1218      303.62618      218.52515      0.5          
    383000  -1019.6722      38.250818      219.36888      0.5          
    384000  -1033.5877     -202.16284      220.9967       0.5          
    385000  -1052.6879     -164.95053      218.44281      0.5          
    386000  -933.57426      159.8185       221.39502      0.5          
    387000  -894.18112     -33.978832      221.38779      0.5          
    388000  -1012.8217     -234.4547       221.22726      0.5          
    389000  -994.55636     -36.299006      220.23805      0.5          
    390000  -993.25242      49.061264      219.01729      0.5          
    391000  -853.88405      94.527694      221.72296      0.5          
    392000  -913.26534     -54.633444      219.30786      0.5          
    393000  -854.80454      57.622422      220.46102      0.5          
    394000  -962.30249      248.21337      219.23745      0.5          
    395000  -817.03869     -26.812256      222.5671       0.5          
    396000  -962.43391     -102.74576      216.89492      0.5          
    397000  -816.83585      287.04143      223.85682      0.5          
    398000  -953.1652      -189.91227      217.8618       0.5          
    399000  -919.67229     -231.68882      216.94614      0.5          
    400000  -699.05573      40.254722      223.46908      0.5          
    401000  -826.69812      238.8878       218.6092       0.5          
    402000  -937.32767      5.9846757      217.51565      0.5          
    403000  -900.01683     -229.64918      219.26486      0.5          
    404000  -870.87501      59.882246      218.76567      0.5          
    405000  -890.48805      141.14597      219.81733      0.5          
    406000  -888.6196      -369.21055      220.0257       0.5          
    407000  -827.44027     -365.30425      219.30586      0.5          
    408000  -776.61266     -120.13026      218.73408      0.5          
    409000  -867.8915       130.71511      219.59497      0.5          
    410000  -818.00445      56.628227      217.63101      0.5          
    411000  -889.4895      -150.654        218.35037      0.5          
    412000  -811.18044     -146.67001      221.99126      0.5          
    413000  -804.38182      143.39969      221.8801       0.5          
    414000  -811.29281     -44.741751      222.3304       0.5          
    415000  -963.90054     -319.72832      217.80213      0.5          
    416000  -939.73664     -193.03873      217.77935      0.5          
    417000  -920.3818       72.669101      219.51487      0.5          
    418000  -951.98239      170.91916      220.5357       0.5          
    419000  -961.24289     -92.895952      219.16253      0.5          
    420000  -930.36669     -19.540624      220.63667      0.5          
    421000  -981.87819      250.42862      219.47747      0.5          
    422000  -934.1793      -206.58134      220.61299      0.5          
    423000  -862.72963     -103.36912      222.34849      0.5          
    424000  -823.901       -80.681346      221.94994      0.5          
    425000  -826.04021      159.70714      223.63557      0.5          
    426000  -845.4726      -78.674198      219.73315      0.5          
    427000  -801.48823     -44.297555      220.41445      0.5          
    428000  -925.43563     -186.9953       217.89445      0.5          
    429000  -815.67967     -48.29871       221.07208      0.5          
    430000  -824.71316      122.49794      221.85221      0.5          
    431000  -848.45018     -185.9448       221.87442      0.5          
    432000  -973.95865     -237.38256      219.96097      0.5          
    433000  -867.19303     -36.827487      219.72433      0.5          
    434000  -874.96943     -91.736319      216.58747      0.5          
    435000  -878.23941     -263.13234      219.86353      0.5          
    436000  -762.14273     -83.708376      223.31426      0.5          
    437000  -805.35342      577.4726       219.76573      0.5          
    438000  -843.13553      216.22201      218.86853      0.5          
    439000  -890.04501     -323.04767      218.81734      0.5          
    440000  -902.63914     -265.13561      218.56787      0.5          
    441000  -873.8696       0.90169267     220.75633      0.5          
    442000  -851.71662      7.9077075      222.12427      0.5          
    443000  -874.79854     -63.105068      222.15716      0.5          
    444000  -774.30974     -50.220486      224.59951      0.5          
    445000  -972.62257     -208.54315      217.82079      0.5          
    446000  -1002.9022     -30.290918      220.55562      0.5          
    447000  -861.47546      217.42579      220.11246      0.5          
    448000  -1007.596       31.802128      218.9315       0.5          
    449000  -959.17775      131.51999      217.74914      0.5          
    450000  -964.95265     -124.58733      217.78038      0.5          
    451000  -1025.5122     -234.79979      217.23035      0.5          
    452000  -791.42713     -40.66944       222.87403      0.5          
    453000  -808.13442      65.279849      220.81832      0.5          
    454000  -915.58239     -153.76034      219.30445      0.5          
    455000  -867.74032     -0.34623128     218.26904      0.5          
    456000  -877.68783     -44.28744       220.54109      0.5          
    457000  -868.75976      61.111331      222.75539      0.5          
    458000  -901.98788      100.09547      221.44268      0.5          
    459000  -971.9276       44.304947      219.06702      0.5          
    460000  -901.24753     -24.499458      220.90739      0.5          
    461000  -913.28063      75.761527      221.18833      0.5          
    462000  -939.26539     -48.791073      217.70513      0.5          
    463000  -801.22946     -179.89738      221.19168      0.5          
    464000  -904.63408     -96.41026       219.71318      0.5          
    465000  -860.53199     -94.921923      221.87903      0.5          
    466000  -898.76363      93.714679      220.96425      0.5          
    467000  -823.37513      126.07805      220.4903       0.5          
    468000  -891.36538     -220.06014      218.0747       0.5          
    469000  -868.88686     -41.12931       221.96661      0.5          
    470000  -784.80187     -55.352593      221.01039      0.5          
    471000  -798.21699      99.503583      220.78233      0.5          
    472000  -925.14691      157.92278      218.93941      0.5          
    473000  -987.93494      7.9697356      215.12349      0.5          
    474000  -778.62177     -84.959463      222.28208      0.5          
    475000  -787.09894     -141.63073      221.51406      0.5          
    476000  -791.79091      176.19139      222.79477      0.5          
    477000  -805.84062      227.99314      221.77571      0.5          
    478000  -789.17959     -110.66348      222.03446      0.5          
    479000  -847.12656      123.74594      221.89379      0.5          
    480000  -826.01646      38.649612      220.85302      0.5          
    481000  -860.67249     -121.25381      219.66373      0.5          
    482000  -779.61163     -62.85868       221.81876      0.5          
    483000  -875.13793      119.85904      219.04964      0.5          
    484000  -904.97191      174.75371      219.30294      0.5          
    485000  -915.65363     -112.40897      218.68199      0.5          
    486000  -840.34678     -93.733289      221.48867      0.5          
    487000  -830.04844      22.270102      221.12937      0.5          
    488000  -861.24945     -175.21842      224.30266      0.5          
    489000  -979.83801     -158.88306      220.2          0.5          
    490000  -1050.2674     -190.19104      215.20711      0.5          
    491000  -985.18616      302.21113      219.52408      0.5          
    492000  -985.5118      -128.02374      219.03849      0.5          
    493000  -980.60524     -248.07751      220.66692      0.5          
    494000  -899.13673      96.789857      220.39867      0.5          
    495000  -1072.3053     -194.0399       216.01215      0.5          
    496000  -989.51711     -217.7326       218.7628       0.5          
    497000  -861.24886      114.56508      222.65977      0.5          
    498000  -862.99289      15.828205      219.67924      0.5          
    499000  -840.85709      66.907655      223.00143      0.5          
    500000  -859.17848      44.815513      220.06811      0.5          
    501000  -946.28807      60.256516      217.87805      0.5          
    502000  -969.21164      143.43814      218.53978      0.5          
    503000  -863.15591     -16.277453      221.2618       0.5          
    504000  -968.2781      -150.07018      220.70381      0.5          
    505000  -899.29183      280.53343      219.75268      0.5          
    506000  -753.36516      122.74553      221.41082      0.5          
    507000  -832.42061     -169.72096      220.98821      0.5          
    508000  -889.75891      176.29857      221.55229      0.5          
    509000  -937.8387      -170.80219      216.56669      0.5          
    510000  -1041.5703     -102.00443      214.00756      0.5          
    511000  -962.85561      132.7221       219.40637      0.5          
    512000  -821.92924      113.65425      222.95618      0.5          
    513000  -867.23255     -302.23133      218.49141      0.5          
    514000  -982.2366       68.813407      216.90026      0.5          
    515000  -967.54117     -87.720783      218.48939      0.5          
    516000  -913.8829      -59.738016      217.07819      0.5          
    517000  -800.2166       148.22656      220.50161      0.5          
    518000  -895.0015      -269.05884      217.7745       0.5          
    519000  -863.20399     -182.07112      219.67239      0.5          
    520000  -923.18628      117.62938      216.3976       0.5          
    521000  -732.99436      90.294936      227.01768      0.5          
    522000  -850.41649     -36.796198      220.96311      0.5          
    523000  -856.76199      17.548669      218.80783      0.5          
    524000  -999.85246     -152.78215      214.3795       0.5          
    525000  -892.67074     -17.759512      221.01105      0.5          
    526000  -936.86513      2.922241       219.2816       0.5          
    527000  -846.46005     -307.53473      218.74039      0.5          
    528000  -943.90844     -32.601548      219.67533      0.5          
    529000  -960.94548      298.85102      217.75046      0.5          
    530000  -932.88354      215.95389      215.93967      0.5          
    531000  -884.36938      14.048124      221.15096      0.5          
    532000  -945.61753     -103.17185      220.80842      0.5          
    533000  -891.66247      61.345048      220.90468      0.5          
    534000  -943.53023      208.53106      221.30391      0.5          
    535000  -963.0702       107.12507      220.43261      0.5          
    536000  -962.60223     -0.79625506     218.69716      0.5          
    537000  -908.40504     -138.69753      222.32717      0.5          
    538000  -840.44336      1.7375595      221.89967      0.5          
    539000  -905.92578      293.70992      219.60457      0.5          
    540000  -910.99048     -333.24807      219.68555      0.5          
    541000  -871.33043     -228.92075      221.3412       0.5          
    542000  -888.39987      346.24699      218.12873      0.5          
    543000  -778.90033      460.0198       222.18118      0.5          
    544000  -904.81455     -183.21337      218.42274      0.5          
    545000  -782.70941     -40.967095      225.51846      0.5          
    546000  -813.90051      55.738636      221.22366      0.5          
    547000  -882.20053     -176.25822      220.48684      0.5          
    548000  -920.231        109.25752      219.67112      0.5          
    549000  -853.13458      78.461072      219.72152      0.5          
    550000  -888.97795     -211.43575      218.54445      0.5          
    551000  -925.35976     -206.2352       217.94331      0.5          
    552000  -797.07981     -40.874013      222.0306       0.5          
    553000  -764.17232      85.463654      220.74214      0.5          
    554000  -755.18185      93.401643      220.66788      0.5          
    555000  -805.70357      97.285055      219.18384      0.5          
    556000  -944.58645      21.646046      217.05577      0.5          
    557000  -926.73323     -186.25381      215.35272      0.5          
    558000  -853.16421     -170.03008      219.61861      0.5          
    559000  -811.71039     -127.53005      220.35853      0.5          
    560000  -883.91751     -63.266683      219.16937      0.5          
    561000  -822.15915      61.797821      223.16997      0.5          
    562000  -853.20399     -72.469391      218.68891      0.5          
    563000  -797.36195      134.04459      223.2566       0.5          
    564000  -754.89411     -168.2188       219.60517      0.5          
    565000  -743.44551      126.86984      222.17604      0.5          
    566000  -727.07151      7.7771293      224.10478      0.5          
    567000  -916.3991       80.876911      217.14224      0.5          
    568000  -834.32843     -61.715468      218.57783      0.5          
    569000  -785.00687      90.390744      225.52359      0.5          
    570000  -788.18607     -82.05558       220.23327      0.5          
    571000  -845.78592     -74.615322      218.82817      0.5          
    572000  -882.54814      185.7054       220.10354      0.5          
    573000  -795.39643      230.88566      220.77358      0.5          
    574000  -869.91251     -173.48856      221.65777      0.5          
    575000  -888.113       -27.252313      221.98446      0.5          
    576000  -909.81437     -52.388958      219.12231      0.5          
    577000  -958.95833      154.51079      219.93676      0.5          
    578000  -921.53182      181.28217      219.74246      0.5          
    579000  -1024.8379      95.265103      218.3534       0.5          
    580000  -1068.5692     -6.9232434      217.7203       0.5          
    581000  -952.79644     -71.425747      219.02339      0.5          
    582000  -921.70376     -17.523705      218.63504      0.5          
    583000  -935.3361      -54.655859      217.01118      0.5          
    584000  -980.72758     -237.45297      219.88686      0.5          
    585000  -861.64213     -303.18088      225.40331      0.5          
    586000  -967.57352     -152.09381      218.17734      0.5          
    587000  -901.10883      229.98666      218.8479       0.5          
    588000  -938.69506     -112.81825      218.92493      0.5          
    589000  -868.94577     -150.97576      221.43187      0.5          
    590000  -988.67203      155.23334      216.24974      0.5          
    591000  -884.67771     -39.140547      221.88427      0.5          
    592000  -869.13143     -222.01087      221.56583      0.5          
    593000  -780.76986      81.275403      219.92568      0.5          
    594000  -889.6224       51.224478      217.7963       0.5          
    595000  -758.14763      196.89633      221.16999      0.5          
    596000  -784.85984      108.10479      220.99209      0.5          
    597000  -882.04779     -184.11774      218.02793      0.5          
    598000  -928.75978     -95.239376      219.47912      0.5          
    599000  -757.19515      201.08756      223.49317      0.5          
    600000  -878.55878     -48.104642      220.37896      0.5          
    601000  -917.8622      -72.465989      217.31684      0.5          
    602000  -787.41231      116.41951      220.46232      0.5          
    603000  -951.7149      -116.12307      215.31749      0.5          
    604000  -936.43696     -130.60195      221.10614      0.5          
    605000  -816.30353      104.77464      220.64522      0.5          
    606000  -809.85371     -78.370255      223.32383      0.5          
    607000  -846.48226     -58.848948      221.06951      0.5          
    608000  -920.54979      108.13197      217.3593       0.5          
    609000  -1010.2614      82.024213      221.16223      0.5          
    610000  -965.66425     -77.73389       216.47026      0.5          
    611000  -969.60894      104.02723      216.51638      0.5          
    612000  -935.08003      348.13703      223.0921       0.5          
    613000  -977.14439     -41.735012      217.80613      0.5          
    614000  -939.7152      -90.460511      222.13601      0.5          
    615000  -921.13276      94.428612      220.9694       0.5          
    616000  -965.46931      96.07707       221.01599      0.5          
    617000  -968.10105      101.0491       218.78968      0.5          
    618000  -951.84016     -55.112463      221.44374      0.5          
    619000  -995.00222      182.59016      216.0563       0.5          
    620000  -925.8285       126.50373      221.61144      0.5          
    621000  -904.97383     -79.061682      221.73519      0.5          
    622000  -878.3621      -194.94579      222.93753      0.5          
    623000  -980.02579     -81.438019      219.93151      0.5          
    624000  -898.70518     -21.648443      222.75436      0.5          
    625000  -944.19773     -68.417231      217.81773      0.5          
    626000  -808.92165      179.69746      221.29151      0.5          
    627000  -861.45299      21.9312        220.0647       0.5          
    628000  -858.5111      -87.239215      220.2313       0.5          
    629000  -890.13187      15.434645      220.64676      0.5          
    630000  -799.91188     -118.10243      221.0666       0.5          
    631000  -766.84555     -243.47194      221.90353      0.5          
    632000  -885.23173      108.21492      215.51313      0.5          
    633000  -835.32302      291.16438      218.84882      0.5          
    634000  -790.78105     -85.419134      222.64497      0.5          
    635000  -788.13091     -319.30838      218.09286      0.5          
    636000  -956.07296     -96.150853      216.53609      0.5          
    637000  -735.9773      -142.56974      223.38716      0.5          
    638000  -806.2064       129.76895      222.37909      0.5          
    639000  -853.86228     -244.2626       220.44781      0.5          
    640000  -902.48946     -61.825294      219.89487      0.5          
    641000  -735.39481      224.08021      221.36989      0.5          
    642000  -737.97008      253.251        224.67912      0.5          
    643000  -834.86018     -404.45795      221.44997      0.5          
    644000  -891.90288     -149.54018      222.04157      0.5          
    645000  -793.55636     -17.451415      222.15109      0.5          
    646000  -817.54882      18.11856       222.6359       0.5          
    647000  -780.89487      330.86426      222.61817      0.5          
    648000  -976.3137       143.48371      217.56073      0.5          
    649000  -830.17919     -76.883063      224.28598      0.5          
    650000  -844.17583     -250.47772      218.25901      0.5          
    651000  -926.86773      175.1062       218.78541      0.5          
    652000  -810.60979      183.73681      220.22572      0.5          
    653000  -961.53472     -66.114128      216.94481      0.5          
    654000  -897.57504      46.630206      220.4911       0.5          
    655000  -905.49324     -212.63114      219.20314      0.5          
    656000  -817.51364      132.86736      222.64657      0.5          
    657000  -881.83815      144.30955      217.0219       0.5          
    658000  -887.18446     -300.34605      220.1111       0.5          
    659000  -835.13754     -164.46052      219.67134      0.5          
    660000  -850.19251      190.85605      218.77593      0.5          
    661000  -713.65449      30.381764      222.54823      0.5          
    662000  -857.18118      28.474967      220.78643      0.5          
    663000  -809.69508     -17.398792      220.23611      0.5          
    664000  -820.8924       141.11458      219.82518      0.5          
    665000  -790.47074      41.261881      218.3861       0.5          
    666000  -857.64567      5.667963       215.53296      0.5          
    667000  -722.48054     -14.428123      224.09057      0.5          
    668000  -877.69332     -153.74792      222.55998      0.5          
    669000  -861.2461      -93.679276      219.16209      0.5          
    670000  -810.10004     -18.648709      222.04271      0.5          
    671000  -890.87182     -151.06063      219.86602      0.5          
    672000  -870.00389      246.07453      220.40752      0.5          
    673000  -945.83403      122.81133      219.04975      0.5          
    674000  -806.69096     -112.12423      221.87284      0.5          
    675000  -931.11777     -323.15532      218.10584      0.5          
    676000  -932.18507      175.32192      217.28683      0.5          
    677000  -952.11538      40.326421      217.92332      0.5          
    678000  -857.63087      20.990689      221.41398      0.5          
    679000  -924.14895      199.97976      215.67397      0.5          
    680000  -861.70536      15.784179      220.99733      0.5          
    681000  -948.94215      22.462466      219.44799      0.5          
    682000  -924.02309      185.11447      221.97083      0.5          
    683000  -972.70394     -35.64986       217.21356      0.5          
    684000  -1038.4986      30.93632       215.66676      0.5          
    685000  -868.41224      19.656769      220.97461      0.5          
    686000  -949.62159      165.5418       220.9001       0.5          
    687000  -937.50446      48.791721      219.33352      0.5          
    688000  -931.44064     -140.17102      215.78908      0.5          
    689000  -826.8404       150.12851      223.64228      0.5          
    690000  -813.54216      123.0156       221.90251      0.5          
    691000  -869.09493     -4.0329655      218.82911      0.5          
    692000  -1023.7109      14.073883      216.93231      0.5          
    693000  -873.73889     -155.05324      218.9349       0.5          
    694000  -856.23178      165.69043      220.90562      0.5          
    695000  -897.06563     -137.06018      218.79704      0.5          
    696000  -725.07591      54.850609      224.3945       0.5          
    697000  -775.58365     -91.577189      222.38561      0.5          
    698000  -841.51284     -193.75639      219.27309      0.5          
    699000  -767.17005     -158.83334      220.54298      0.5          
    700000  -882.46111     -54.016561      218.47357      0.5          
    701000  -800.49198      120.14462      218.66305      0.5          
    702000  -803.37769     -36.788272      223.13917      0.5          
    703000  -779.46283      92.159674      219.49408      0.5          
    704000  -786.783        196.58327      223.26311      0.5          
    705000  -871.85049     -98.751057      216.24955      0.5          
    706000  -814.76493     -54.05663       221.86244      0.5          
    707000  -879.42265     -253.27586      217.50653      0.5          
    708000  -812.20883      57.882038      219.39618      0.5          
    709000  -813.26312      194.74971      219.45059      0.5          
    710000  -771.51071     -41.981964      221.40429      0.5          
    711000  -738.36816     -5.9092459      223.19234      0.5          
    712000  -809.26981      74.479898      223.58465      0.5          
    713000  -876.26712     -94.172596      218.28233      0.5          
    714000  -795.03941     -76.819961      219.81144      0.5          
    715000  -900.39132      158.30991      220.51825      0.5          
    716000  -964.09036      276.3439       220.08695      0.5          
    717000  -859.04006     -76.158846      222.10995      0.5          
    718000  -928.80079     -204.39162      219.31973      0.5          
    719000  -966.60492      82.906186      217.29919      0.5          
    720000  -953.10653      101.89663      218.07822      0.5          
    721000  -854.08073      152.61103      220.22907      0.5          
    722000  -813.93528      112.11091      221.62869      0.5          
    723000  -852.56197      144.19902      219.3405       0.5          
    724000  -777.66396     -113.19135      221.23605      0.5          
    725000  -913.48924     -375.68581      219.6213       0.5          
    726000  -895.43574      62.496349      220.32474      0.5          
    727000  -984.97216      337.79217      215.75476      0.5          
    728000  -925.54209      52.172849      213.94592      0.5          
    729000  -764.21354     -269.61774      222.43735      0.5          
    730000  -834.66001      18.119811      221.04725      0.5          
    731000  -871.88159      57.269612      220.69753      0.5          
    732000  -1030.285      -273.03909      215.57846      0.5          
    733000  -867.59593     -76.869368      220.41573      0.5          
    734000  -757.86061      155.38923      226.1271       0.5          
    735000  -850.60262      103.61737      222.09623      0.5          
    736000  -833.66067     -124.06429      222.5518       0.5          
    737000  -796.41965      100.79872      220.43257      0.5          
    738000  -862.3415       22.578495      218.35396      0.5          
    739000  -839.81384      16.402751      220.70482      0.5          
    740000  -775.98657      33.544112      222.55121      0.5          
    741000  -899.12368     -39.367494      217.81165      0.5          
    742000  -744.14754     -44.772699      223.88769      0.5          
    743000  -779.85192     -5.2666613      221.8641       0.5          
    744000  -904.5441      -94.591992      219.63288      0.5          
    745000  -842.34634      135.11194      220.12577      0.5          
    746000  -666.55283      238.05546      222.68651      0.5          
    747000  -810.29875     -196.49604      218.67409      0.5          
    748000  -851.77378      12.694256      220.53819      0.5          
    749000  -803.52074      102.29527      217.92407      0.5          
    750000  -764.19661     -106.16996      220.74269      0.5          
    751000  -763.99744      32.438607      219.72105      0.5          
    752000  -665.72814     -59.615036      226.46248      0.5          
    753000  -852.81787      78.724063      216.69145      0.5          
    754000  -916.69899      202.17036      216.6862       0.5          
    755000  -774.81724     -164.01144      221.63797      0.5          
    756000  -906.88956     -106.46949      216.55752      0.5          
    757000  -878.28834     -47.680719      217.36214      0.5          
    758000  -866.16495      7.4767642      220.84624      0.5          
    759000  -653.11303      44.628266      223.58957      0.5          
    760000  -767.13544      127.30473      221.15857      0.5          
    761000  -833.46597     -52.550693      220.89886      0.5          
    762000  -732.05075      198.57887      223.35968      0.5          
    763000  -829.60973     -22.770813      220.8589       0.5          
    764000  -762.51359     -20.851786      222.69868      0.5          
    765000  -885.11395      132.36304      218.4957       0.5          
    766000  -912.63032      218.25005      221.28385      0.5          
    767000  -901.4032       60.470241      218.31787      0.5          
    768000  -877.49648      32.292347      219.57725      0.5          
    769000  -874.05678      35.360082      222.4944       0.5          
    770000  -961.92578     -26.273992      218.43892      0.5          
    771000  -846.93559      41.344941      222.45299      0.5          
    772000  -870.20459      85.697036      216.09569      0.5          
    773000  -758.78719     -134.02275      224.4773       0.5          
    774000  -912.23711     -286.00411      216.46865      0.5          
    775000  -791.67095      181.03759      219.98636      0.5          
    776000  -828.29086      230.46612      220.45688      0.5          
    777000  -793.0119      -38.485735      220.01491      0.5          
    778000  -809.39889      40.141282      219.49325      0.5          
    779000  -785.24511     -140.62511      220.69671      0.5          
    780000  -820.96016     -37.798207      219.73258      0.5          
    781000  -804.8067       4.0542696      220.13321      0.5          
    782000  -900.28371     -110.48142      218.329        0.5          
    783000  -765.01747      135.92241      221.95828      0.5          
    784000  -862.77152      21.86369       219.33304      0.5          
    785000  -829.46017     -260.93191      217.39508      0.5          
    786000  -735.81317     -13.370412      222.18351      0.5          
    787000  -847.29169      240.74345      219.40586      0.5          
    788000  -762.92166     -125.05472      222.43777      0.5          
    789000  -745.26527      78.325053      220.76463      0.5          
    790000  -891.33186      104.54051      218.48086      0.5          
    791000  -829.02979     -286.24207      220.99182      0.5          
    792000  -757.8066      -450.26602      222.74589      0.5          
    793000  -729.76828      101.09841      223.20506      0.5          
    794000  -714.5612       139.75947      224.75333      0.5          
    795000  -792.95765      86.112432      217.74816      0.5          
    796000  -713.98813      262.89548      222.10088      0.5          
    797000  -875.58776      123.30084      219.30596      0.5          
    798000  -812.84617      192.47473      222.15352      0.5          
    799000  -911.38126     -326.01748      217.88403      0.5          
    800000  -812.60952     -60.264705      222.19534      0.5          
    801000  -820.64928      254.7492       221.66741      0.5          
    802000  -727.45962     -169.79012      220.69534      0.5          
    803000  -866.5499      -93.764965      218.81122      0.5          
    804000  -893.30504     -13.0005        220.76714      0.5          
    805000  -864.28188      37.930093      218.16021      0.5          
    806000  -858.87777     -321.59919      218.15409      0.5          
    807000  -869.45719     -40.414256      219.18534      0.5          
    808000  -806.70313      137.56966      220.07894      0.5          
    809000  -756.1088      -132.39448      221.93749      0.5          
    810000  -994.07551     -321.02599      215.5784       0.5          
    811000  -836.26459      91.197168      221.82936      0.5          
    812000  -826.48673      72.77919       218.70305      0.5          
    813000  -812.77805     -97.520998      221.69142      0.5          
    814000  -858.01849     -232.66549      220.34254      0.5          
    815000  -854.02372      20.061753      220.68424      0.5          
    816000  -866.65857      240.4431       217.86256      0.5          
    817000  -958.81128     -77.929236      217.58669      0.5          
    818000  -771.97702     -195.20142      223.47446      0.5          
    819000  -887.59322      115.88162      217.22471      0.5          
    820000  -852.96358      90.690545      218.50455      0.5          
    821000  -855.15773     -156.50379      219.2642       0.5          
    822000  -761.48664     -65.248935      223.36426      0.5          
    823000  -833.08269     -106.01575      218.3521       0.5          
    824000  -870.33955      48.216888      219.5317       0.5          
    825000  -863.30509     -32.831949      220.53345      0.5          
    826000  -691.35471      106.98101      223.70324      0.5          
    827000  -806.55405      77.4076        220.7015       0.5          
    828000  -836.59142     -38.859123      221.08296      0.5          
    829000  -779.83634     -100.20238      219.73123      0.5          
    830000  -888.18368     -65.67329       219.10284      0.5          
    831000  -825.35024      36.737292      218.88309      0.5          
    832000  -828.98448     -98.53831       221.81986      0.5          
    833000  -752.83227     -236.42318      222.60058      0.5          
    834000  -772.16479      8.9939429      220.15001      0.5          
    835000  -847.61772     -235.98911      219.2009       0.5          
    836000  -830.37289      58.356495      218.52817      0.5          
    837000  -878.81617      176.10022      217.03465      0.5          
    838000  -710.99893     -341.73985      222.09666      0.5          
    839000  -823.2684       151.02449      219.81218      0.5          
    840000  -849.89197     -48.808451      217.30201      0.5          
    841000  -686.2599      -199.45568      223.28327      0.5          
    842000  -797.77918     -67.327716      220.40572      0.5          
    843000  -718.13452      178.5397       220.33761      0.5          
    844000  -705.23764      297.08617      221.85743      0.5          
    845000  -787.59325     -282.54375      221.48165      0.5          
    846000  -805.16375     -312.94528      221.92877      0.5          
    847000  -914.12355     -61.586495      216.95356      0.5          
    848000  -865.84757      60.380921      219.25716      0.5          
    849000  -813.38137     -27.372829      221.09579      0.5          
    850000  -785.9762      -162.25946      221.07352      0.5          
    851000  -640.02184      31.332444      224.91236      0.5          
    852000  -612.97245      138.26073      224.67781      0.5          
    853000  -723.93236      25.835453      221.28549      0.5          
    854000  -830.75215     -327.94955      217.99573      0.5          
    855000  -770.13287      349.37922      220.75089      0.5          
    856000  -884.10725     -60.687728      219.84413      0.5          
    857000  -821.05069     -150.00886      221.67889      0.5          
    858000  -800.71219      206.47771      219.10241      0.5          
    859000  -969.07483      21.789282      216.80534      0.5          
    860000  -959.60361     -156.86978      218.54647      0.5          
    861000  -792.31527      226.30393      218.71786      0.5          
    862000  -890.90063      164.23247      221.18386      0.5          
    863000  -828.36282     -315.61074      219.14999      0.5          
    864000  -811.60575      45.211981      221.94971      0.5          
    865000  -805.0062       164.01165      220.10215      0.5          
    866000  -811.49098      156.52139      219.72021      0.5          
    867000  -706.85421     -94.135044      224.10572      0.5          
    868000  -798.69494     -92.39711       223.67572      0.5          
    869000  -717.19655      59.531564      223.45838      0.5          
    870000  -669.06127      58.729125      222.35869      0.5          
    871000  -723.50396     -209.64148      220.24312      0.5          
    872000  -694.46658     -97.285787      222.44057      0.5          
    873000  -816.1407       16.900976      220.24156      0.5          
    874000  -757.60396      120.06049      221.30922      0.5          
    875000  -830.23154      204.09839      221.91825      0.5          
    876000  -796.60393     -61.916008      220.67851      0.5          
    877000  -766.55845     -107.96363      223.01589      0.5          
    878000  -871.46043     -134.55532      218.4005       0.5          
    879000  -789.54216      24.132432      221.03954      0.5          
    880000  -806.25681     -99.638627      218.50243      0.5          
    881000  -779.55564     -187.37488      220.46653      0.5          
    882000  -731.3787      -232.22777      222.24116      0.5          
    883000  -610.28153     -170.8058       219.3557       0.5          
    884000  -711.11828     -126.15749      222.73193      0.5          
    885000  -674.81983     -173.87877      222.90011      0.5          
    886000  -661.20864      279.20879      223.37012      0.5          
    887000  -671.5365      -164.52294      219.4097       0.5          
    888000  -712.84875      22.61244       220.71447      0.5          
    889000  -761.57876     -30.671339      218.17233      0.5          
    890000  -770.53077      5.3210505      217.83887      0.5          
    891000  -690.90405      389.80545      220.08221      0.5          
    892000  -834.22117      162.99635      216.81248      0.5          
    893000  -787.98506      140.04232      218.5515       0.5          
    894000  -817.55938     -11.81901       218.58769      0.5          
    895000  -896.65341      255.99313      217.58157      0.5          
    896000  -888.42271     -239.01011      217.77428      0.5          
    897000  -633.08038      41.603315      222.91535      0.5          
    898000  -749.43591      133.94836      220.75794      0.5          
    899000  -748.89255      70.090881      220.73206      0.5          
    900000  -763.56729      144.5075       220.70369      0.5          
    901000  -810.83628     -187.52361      219.16466      0.5          
    902000  -790.73946     -60.83881       221.70995      0.5          
    903000  -842.84486     -163.24816      218.53851      0.5          
    904000  -899.58243      197.43519      221.61566      0.5          
    905000  -791.87968      278.78968      223.39292      0.5          
    906000  -814.56459      67.057559      221.62487      0.5          
    907000  -783.75409     -46.004806      223.90195      0.5          
    908000  -865.77082     -109.56213      219.9043       0.5          
    909000  -820.13726     -200.71578      220.85179      0.5          
    910000  -696.07276     -99.926848      220.02359      0.5          
    911000  -656.62424      19.539265      222.28267      0.5          
    912000  -794.41479     -167.27772      218.38623      0.5          
    913000  -704.80665      207.36861      225.31714      0.5          
    914000  -731.45789      46.307066      222.20523      0.5          
    915000  -725.16657     -187.0394       223.23455      0.5          
    916000  -738.6157      -254.21941      221.12034      0.5          
    917000  -797.41608      123.04849      219.40899      0.5          
    918000  -791.83711     -144.9823       216.64207      0.5          
    919000  -712.8626      -207.50915      220.48291      0.5          
    920000  -795.66814     -100.80624      218.0699       0.5          
    921000  -701.49332     -89.058103      222.45829      0.5          
[...]
   3752000  -626.63302      320.84908      219.24587      0.5          
   3753000  -626.58971      110.33035      220.10834      0.5          
   3754000  -626.56057     -134.74579      221.65643      0.5          
   3755000  -626.32414      115.99913      221.53187      0.5          
   3756000  -626.57175     -170.00634      218.81231      0.5          
   3757000  -626.68863      12.62191       220.74299      0.5          
   3758000  -626.73859      83.108601      220.26662      0.5          
   3759000  -626.57828     -22.557022      218.50935      0.5          
   3760000  -626.47993      92.6996        219.97638      0.5          
   3761000  -626.51936      92.012113      220.96697      0.5          
   3762000  -626.2984      -1.3149468      216.71686      0.5          
   3763000  -626.41795      94.126986      217.20062      0.5          
   3764000  -626.70334     -133.2785       218.79377      0.5          
   3765000  -626.64646      48.735642      217.81705      0.5          
   3766000  -626.39878      93.758765      216.5536       0.5          
   3767000  -626.78004     -201.46811      219.22047      0.5          
   3768000  -626.70289      10.978378      214.75188      0.5          
   3769000  -626.75249      146.36063      217.26157      0.5          
   3770000  -626.8756       14.146375      220.31772      0.5          
   3771000  -626.77138     -39.46263       218.33478      0.5          
   3772000  -626.51075     -25.929313      217.03259      0.5          
   3773000  -626.6764      -41.934917      221.77089      0.5          
   3774000  -626.40632      49.568685      221.45388      0.5          
   3775000  -626.47331     -28.685049      219.01593      0.5          
   3776000  -626.22427     -106.11336      216.98407      0.5          
   3777000  -626.32145      19.857513      217.92235      0.5          
   3778000  -626.37816     -48.311112      219.69973      0.5          
   3779000  -626.10807      63.537663      215.95374      0.5          
   3780000  -625.99359     -52.029193      219.65131      0.5          
   3781000  -626.04543     -222.16723      218.20407      0.5          
   3782000  -626.0769       152.93211      222.20981      0.5          
   3783000  -626.09963      97.343355      220.31486      0.5          
   3784000  -626.10301     -43.533065      223.2776       0.5          
   3785000  -626.35985      127.3015       216.62145      0.5          
   3786000  -626.08209      81.176185      220.6359       0.5          
   3787000  -626.05655      23.748275      221.7268       0.5          
   3788000  -626.14457      48.178606      220.28683      0.5          
   3789000  -626.28338     -200.80018      219.98298      0.5          
   3790000  -626.29423      165.79358      220.45039      0.5          
   3791000  -626.12926      15.600869      219.61477      0.5          
   3792000  -626.05497     -188.87025      219.41431      0.5          
   3793000  -626.39963      73.841023      223.62679      0.5          
   3794000  -626.48104     -138.82297      221.18319      0.5          
   3795000  -626.3291       58.042656      220.74086      0.5          
   3796000  -626.31164     -105.09253      220.73303      0.5          
   3797000  -626.19808      46.383399      217.77497      0.5          
   3798000  -626.27438     -128.37889      218.82767      0.5          
   3799000  -626.49069      60.06227       219.11415      0.5          
   3800000  -626.35262      31.423282      218.64861      0.5          
   3801000  -626.25639      169.70651      217.81345      0.5          
   3802000  -626.38062     -70.867321      219.6238       0.5          
   3803000  -626.19562     -37.077121      219.93946      0.5          
   3804000  -626.27199      243.47936      222.99088      0.5          
   3805000  -626.28361     -79.274193      221.41205      0.5          
   3806000  -626.16312     -135.91044      219.18656      0.5          
   3807000  -625.98856      141.47718      219.65548      0.5          
   3808000  -626.13151      209.83757      219.83699      0.5          
   3809000  -625.99226     -75.050884      221.71706      0.5          
   3810000  -625.84623     -120.4705       221.78415      0.5          
   3811000  -625.73482     -143.16946      217.90211      0.5          
   3812000  -625.78804     -103.05703      219.50295      0.5          
   3813000  -625.86416     -73.710559      221.4454       0.5          
   3814000  -625.89659      92.355524      220.80274      0.5          
   3815000  -625.95076     -142.20886      219.71795      0.5          
   3816000  -625.9508      -155.07301      221.37569      0.5          
   3817000  -625.95724     -146.0609       220.4933       0.5          
   3818000  -625.86952     -11.528217      218.61024      0.5          
   3819000  -626.21485      79.338737      220.27521      0.5          
   3820000  -625.95075      181.12736      215.59997      0.5          
   3821000  -625.87456      25.367684      219.2918       0.5          
   3822000  -625.63142      172.0338       217.84581      0.5          
   3823000  -625.78623     -74.35646       220.75861      0.5          
   3824000  -625.88527     -350.00369      221.57612      0.5          
   3825000  -625.84967     -34.64568       222.25371      0.5          
   3826000  -625.51452      232.34659      216.67906      0.5          
   3827000  -625.28274     -118.66951      218.87323      0.5          
   3828000  -625.4954      -107.02223      217.94431      0.5          
   3829000  -625.58026     -32.745788      218.4376       0.5          
   3830000  -626.09333      65.496561      219.85263      0.5          
   3831000  -625.35647     -180.14886      218.09996      0.5          
   3832000  -625.417       -115.80527      219.92001      0.5          
   3833000  -625.60911      230.33637      219.37663      0.5          
   3834000  -625.54285      135.43716      220.28614      0.5          
   3835000  -625.36409     -71.420713      220.96895      0.5          
   3836000  -625.51858      135.18403      221.14682      0.5          
   3837000  -625.26699     -144.43051      221.29905      0.5          
   3838000  -625.46493     -128.60847      222.40682      0.5          
   3839000  -625.67047     -22.896315      223.15461      0.5          
   3840000  -625.71544      2.3462497      221.96318      0.5          
   3841000  -625.37184     -146.37159      220.26994      0.5          
   3842000  -625.26415     -80.80428       221.76036      0.5          
   3843000  -625.44293      213.37571      222.27928      0.5          
   3844000  -625.55777      135.05981      222.22377      0.5          
   3845000  -625.28218      171.77324      221.88897      0.5          
   3846000  -625.13563     -157.88664      220.602        0.5          
   3847000  -625.262       -54.21137       224.04914      0.5          
   3848000  -624.96861     -55.172321      220.73765      0.5          
   3849000  -625.01347     -88.734047      222.72198      0.5          
   3850000  -625.00933      25.557671      223.67248      0.5          
   3851000  -624.90241      68.145992      220.57568      0.5          
   3852000  -625.30371      91.816127      224.5622       0.5          
   3853000  -624.88932     -111.96341      220.8925       0.5          
   3854000  -624.72554      207.85401      219.82588      0.5          
   3855000  -625.03312     -35.119779      221.1488       0.5          
   3856000  -625.19115     -174.99766      222.78918      0.5          
   3857000  -625.26498     -71.577172      218.69384      0.5          
   3858000  -624.78052      31.712512      220.90324      0.5          
   3859000  -624.97749     -146.13225      216.73379      0.5          
   3860000  -625.06828     -143.05377      217.26712      0.5          
   3861000  -625.25685     -183.75581      218.9833       0.5          
   3862000  -625.13168      215.99461      218.44236      0.5          
   3863000  -624.93354      74.803577      217.73709      0.5          
   3864000  -625.16023     -94.553989      217.29138      0.5          
   3865000  -625.42968     -49.883168      216.16004      0.5          
   3866000  -625.3556      -142.83822      216.89982      0.5          
   3867000  -625.17666     -265.6046       219.03713      0.5          
   3868000  -624.69368     -230.07039      215.29694      0.5          
   3869000  -624.92621      8.0698519      218.37445      0.5          
   3870000  -624.94759     -105.69514      221.32458      0.5          
   3871000  -624.61274     -220.44898      219.30283      0.5          
   3872000  -624.24902     -122.05981      217.44236      0.5          
   3873000  -624.55845      240.52662      219.96745      0.5          
   3874000  -624.49712     -28.752922      218.97177      0.5          
   3875000  -624.8081       38.918181      225.24907      0.5          
   3876000  -624.51472      67.189325      223.2986       0.5          
   3877000  -624.65468     -54.893705      226.34118      0.5          
   3878000  -624.40601      16.191316      221.36658      0.5          
   3879000  -624.61245     -129.79422      222.47844      0.5          
   3880000  -624.53619     -3.4628479      223.47886      0.5          
   3881000  -623.93051      236.98721      220.07064      0.5          
   3882000  -624.23065     -328.36686      221.98336      0.5          
   3883000  -624.41936     -136.67894      220.65243      0.5          
   3884000  -624.5113      -3.6087946      221.92537      0.5          
   3885000  -624.30234     -119.0549       220.61359      0.5          
   3886000  -624.09847      146.24938      220.44932      0.5          
   3887000  -624.07051     -221.73786      220.67533      0.5          
   3888000  -624.271       -10.228151      219.39934      0.5          
   3889000  -624.38047      330.99744      222.07337      0.5          
   3890000  -624.46244     -150.64474      222.52074      0.5          
   3891000  -624.11273     -63.591051      217.85979      0.5          
   3892000  -624.32448      21.737879      221.25831      0.5          
   3893000  -624.40543     -191.81805      220.21211      0.5          
   3894000  -624.3857       63.85086       221.0066       0.5          
   3895000  -624.20715      19.256231      217.46258      0.5          
   3896000  -624.15829      153.10523      218.29016      0.5          
   3897000  -624.08089      43.112353      218.01187      0.5          
   3898000  -623.89845     -200.04812      219.13342      0.5          
   3899000  -623.62452     -38.29399       217.99563      0.5          
   3900000  -623.80629     -81.797312      216.6741       0.5          
   3901000  -623.89509      131.09961      216.44414      0.5          
   3902000  -623.86975     -33.487017      218.43975      0.5          
   3903000  -623.7399       14.764482      217.91625      0.5          
   3904000  -623.6865       149.31572      216.61277      0.5          
   3905000  -624.0415      -73.95766       219.39911      0.5          
   3906000  -623.77863      50.411173      217.25941      0.5          
   3907000  -623.87241     -9.1880095      219.55673      0.5          
   3908000  -623.76905      15.356726      219.60049      0.5          
   3909000  -623.71799      88.011239      218.80573      0.5          
   3910000  -623.98269      127.99897      220.64693      0.5          
   3911000  -623.95617      208.43485      222.72196      0.5          
   3912000  -623.94435      88.160287      220.69576      0.5          
   3913000  -623.63106     -316.12599      220.73019      0.5          
   3914000  -623.77479     -61.658404      221.61034      0.5          
   3915000  -623.97173      182.45726      222.24795      0.5          
   3916000  -623.91663      173.80177      220.71501      0.5          
   3917000  -623.67569     -156.99859      222.14128      0.5          
   3918000  -623.64738      96.7795        219.52603      0.5          
   3919000  -623.88987      80.305331      219.06283      0.5          
   3920000  -623.85442     -18.731392      219.36437      0.5          
   3921000  -623.66957     -19.939471      218.51271      0.5          
   3922000  -623.69861      104.95689      217.28923      0.5          
   3923000  -623.7583       52.36294       222.30344      0.5          
   3924000  -623.7833      -71.070596      220.40692      0.5          
   3925000  -623.50412     -44.198587      219.50753      0.5          
   3926000  -623.30103      41.938201      216.95808      0.5          
   3927000  -623.63085      3.4378811      219.06512      0.5          
   3928000  -623.99117     -302.95844      217.33478      0.5          
   3929000  -623.09471     -57.747736      218.72686      0.5          
   3930000  -622.75626      144.78237      214.62973      0.5          
   3931000  -623.13812     -148.19987      218.7936       0.5          
   3932000  -623.49534     -34.976011      219.55532      0.5          
   3933000  -623.35361      171.12855      217.82703      0.5          
   3934000  -623.02258     -92.491063      215.66062      0.5          
   3935000  -623.26368     -279.64546      220.9909       0.5          
   3936000  -623.66748     -107.11484      217.18471      0.5          
   3937000  -623.90448      189.83696      219.68134      0.5          
   3938000  -623.58484     -43.218204      218.2922       0.5          
   3939000  -622.99122     -209.92043      216.64965      0.5          
   3940000  -623.19147      338.12472      217.77567      0.5          
   3941000  -623.6567       108.41265      218.63911      0.5          
   3942000  -623.60164     -93.941805      219.34318      0.5          
   3943000  -623.39171     -14.811429      220.3347       0.5          
   3944000  -622.84812      30.936493      217.41078      0.5          
   3945000  -623.38003      156.9936       218.66429      0.5          
   3946000  -623.29062      76.896989      219.95725      0.5          
   3947000  -623.39539      29.145854      218.3697       0.5          
   3948000  -623.17949     -18.17237       218.94413      0.5          
   3949000  -623.53024     -124.92514      220.27358      0.5          
   3950000  -623.57306      285.25214      218.94812      0.5          
   3951000  -623.4356       263.32637      220.36554      0.5          
   3952000  -623.07583      66.654163      217.90326      0.5          
   3953000  -623.0893       32.445628      220.09301      0.5          
   3954000  -622.99145     -74.453576      218.48483      0.5          
   3955000  -623.46114      150.28957      223.75685      0.5          
   3956000  -623.2133       17.277832      221.19531      0.5          
   3957000  -623.06258     -81.883883      219.10282      0.5          
   3958000  -622.67139      139.74026      218.83648      0.5          
   3959000  -622.96602     -6.6644608      219.03584      0.5          
   3960000  -623.14308      124.33672      219.22855      0.5          
   3961000  -623.16041     -5.8716243      219.08409      0.5          
   3962000  -623.01387     -115.13519      218.12396      0.5          
   3963000  -623.15373      186.62346      216.20778      0.5          
   3964000  -623.36978      185.22953      218.30809      0.5          
   3965000  -623.44345     -245.86043      219.55771      0.5          
   3966000  -623.11139     -38.637757      217.76945      0.5          
   3967000  -622.895       -17.570563      216.29688      0.5          
   3968000  -623.18305      27.211396      216.20433      0.5          
   3969000  -623.14196     -70.467846      216.42634      0.5          
   3970000  -622.73837     -128.54394      220.46004      0.5          
   3971000  -622.73939      144.34218      216.49129      0.5          
   3972000  -622.45925      186.46878      218.1318       0.5          
   3973000  -622.66381     -84.326573      221.03054      0.5          
   3974000  -622.56727     -300.82734      220.64941      0.5          
   3975000  -622.59683      72.548244      220.96625      0.5          
   3976000  -622.77333      112.78797      218.5444       0.5          
   3977000  -622.87174     -39.435908      220.9533       0.5          
   3978000  -622.44988      71.060273      220.65912      0.5          
   3979000  -622.421       -10.621207      220.42628      0.5          
   3980000  -622.51926     -7.9466065      218.50685      0.5          
   3981000  -622.74583      20.631983      220.12428      0.5          
   3982000  -622.50506     -40.88645       220.07515      0.5          
   3983000  -622.43594      18.225476      220.22627      0.5          
   3984000  -622.19187     -85.329837      217.30731      0.5          
   3985000  -622.49858      119.35837      220.37856      0.5          
   3986000  -622.52575      87.216095      215.75675      0.5          
   3987000  -622.11162     -171.98695      216.81727      0.5          
   3988000  -622.10036     -100.78317      217.50803      0.5          
   3989000  -622.32339      137.19724      218.0395       0.5          
   3990000  -622.3834      -74.002486      218.93162      0.5          
   3991000  -621.8666      -242.70352      218.23868      0.5          
   3992000  -622.03732      77.530899      220.40853      0.5          
   3993000  -622.01936     -190.02833      219.22649      0.5          
   3994000  -622.11006     -174.78725      218.93623      0.5          
   3995000  -622.17383      326.75396      222.30888      0.5          
   3996000  -621.71807      102.18516      218.17205      0.5          
   3997000  -621.81306     -102.8103       219.57067      0.5          
   3998000  -621.84318      46.469563      221.12662      0.5          
   3999000  -621.93216      34.811375      219.01852      0.5          
   4000000  -621.98172      35.554224      220.69973      0.5          
Loop time of 5847 on 24 procs for 2000000 steps with 7050 atoms

Performance: 14.777 ns/day, 1.624 hours/ns, 342.056 timesteps/s, 2.411 Matom-step/s
99.5% CPU use with 24 MPI tasks x 1 OpenMP threads

MPI task timing breakdown:
Section |  min time  |  avg time  |  max time  |%varavg| %total
---------------------------------------------------------------
Pair    | 1543.1     | 3519.5     | 4091       |1434.8 | 60.19
Bond    | 16.623     | 18.315     | 19.544     |  15.1 |  0.31
Kspace  | 1159.9     | 1808.6     | 3841.4     |2051.0 | 30.93
Neigh   | 35.35      | 35.579     | 35.865     |   2.5 |  0.61
Comm    | 293.25     | 368.04     | 467.23     | 302.5 |  6.29
Output  | 0.091073   | 0.51969    | 0.54302    |  12.4 |  0.01
Modify  | 60.712     | 86.668     | 103.73     | 163.8 |  1.48
Other   |            | 9.835      |            |       |  0.17

Nlocal:         293.75 ave         352 max         237 min
Histogram: 1 0 3 0 7 9 2 1 0 1
Nghost:        5575.29 ave        6520 max        3962 min
Histogram: 4 3 1 0 0 0 0 4 3 9
Neighs:         127320 ave      153706 max       55198 min
Histogram: 3 1 0 0 0 0 0 2 12 6

Total # of neighbors = 3055692
Ave neighs/atom = 433.43149
Ave special neighs/atom = 2
Neighbor list builds = 8242
Dangerous builds = 0

unfix           COM_DRIFT
unfix           NVE
unfix           CPU_BALANCE
unfix           dens_profile
unfix           1
unfix           2
unfix           3

write_data      ${NAME}_final.data
write_data      CO2_final.data
System init for write_data ...
PPPM initialization ...
  using 12-bit tables for long-range coulomb (src/kspace.cpp:342)
  G vector (1/distance) = 0.20169663
  grid = 24 24 80
  stencil order = 5
  estimated absolute RMS force accuracy = 0.00286774
  estimated relative force accuracy = 8.6361139e-06
  using single precision FFTW3
  3d grid and FFT values/proc = 13357 4320
Generated 1 of 1 mixed pair_coeff terms from arithmetic mixing rule
Last active /omp style is kspace_style pppm/omp
reset_timestep  0

quit
