ITEM: TIMESTEP
0
ITEM: NUMBER OF NODES
192
ITEM: BOX BOUNDS
0 40
0 40
0 240
ITEM: NODES
1 1 0 0 0
2 1 18.75 0 0
3 1 18.75 18.75 0
4 1 0 18.75 0
5 1 0 0 88.75
6 1 18.75 0 88.75
7 1 18.75 18.75 88.75
8 1 0 18.75 88.75
9 1 0 0 88.75
10 1 18.75 0 88.75
11 1 18.75 18.75 88.75
12 1 0 18.75 88.75
13 1 0 0 104.375
14 1 18.75 0 104.375
15 1 18.75 18.75 104.375
16 1 0 18.75 104.375
17 1 0 0 104.375
18 1 18.75 0 104.375
19 1 18.75 18.75 104.375
20 1 0 18.75 104.375
21 1 0 0 119.375
22 1 18.75 0 119.375
23 1 18.75 18.75 119.375
24 1 0 18.75 119.375
25 1 0 0 119.375
26 1 18.75 0 119.375
27 1 18.75 18.75 119.375
28 1 0 18.75 119.375
29 1 0 0 135.625
30 1 18.75 0 135.625
31 1 18.75 18.75 135.625
32 1 0 18.75 135.625
33 1 0 0 135.625
34 1 18.75 0 135.625
35 1 18.75 18.75 135.625
36 1 0 18.75 135.625
37 1 0 0 151.25
38 1 18.75 0 151.25
39 1 18.75 18.75 151.25
40 1 0 18.75 151.25
41 1 0 0 151.25
42 1 18.75 0 151.25
43 1 18.75 18.75 151.25
44 1 0 18.75 151.25
45 1 0 0 240
46 1 18.75 0 240
47 1 18.75 18.75 240
48 1 0 18.75 240
49 1 0 18.75 0
50 1 18.75 18.75 0
51 1 18.75 40 0
52 1 0 40 0
53 1 0 18.75 88.75
54 1 18.75 18.75 88.75
55 1 18.75 40 88.75
56 1 0 40 88.75
57 1 0 18.75 88.75
58 1 18.75 18.75 88.75
59 1 18.75 40 88.75
60 1 0 40 88.75
61 1 0 18.75 104.375
62 1 18.75 18.75 104.375
63 1 18.75 40 104.375
64 1 0 40 104.375
65 1 0 18.75 104.375
66 1 18.75 18.75 104.375
67 1 18.75 40 104.375
68 1 0 40 104.375
69 1 0 18.75 119.375
70 1 18.75 18.75 119.375
71 1 18.75 40 119.375
72 1 0 40 119.375
73 1 0 18.75 119.375
74 1 18.75 18.75 119.375
75 1 18.75 40 119.375
76 1 0 40 119.375
77 1 0 18.75 135.625
78 1 18.75 18.75 135.625
79 1 18.75 40 135.625
80 1 0 40 135.625
81 1 0 18.75 135.625
82 1 18.75 18.75 135.625
83 1 18.75 40 135.625
84 1 0 40 135.625
85 1 0 18.75 151.25
86 1 18.75 18.75 151.25
87 1 18.75 40 151.25
88 1 0 40 151.25
89 1 0 18.75 151.25
90 1 18.75 18.75 151.25
91 1 18.75 40 151.25
92 1 0 40 151.25
93 1 0 18.75 240
94 1 18.75 18.75 240
95 1 18.75 40 240
96 1 0 40 240
97 1 18.75 0 0
98 1 40 0 0
99 1 40 18.75 0
100 1 18.75 18.75 0
101 1 18.75 0 88.75
102 1 40 0 88.75
103 1 40 18.75 88.75
104 1 18.75 18.75 88.75
105 1 18.75 0 88.75
106 1 40 0 88.75
107 1 40 18.75 88.75
108 1 18.75 18.75 88.75
109 1 18.75 0 104.375
110 1 40 0 104.375
111 1 40 18.75 104.375
112 1 18.75 18.75 104.375
113 1 18.75 0 104.375
114 1 40 0 104.375
115 1 40 18.75 104.375
116 1 18.75 18.75 104.375
117 1 18.75 0 119.375
118 1 40 0 119.375
119 1 40 18.75 119.375
120 1 18.75 18.75 119.375
121 1 18.75 0 119.375
122 1 40 0 119.375
123 1 40 18.75 119.375
124 1 18.75 18.75 119.375
125 1 18.75 0 135.625
126 1 40 0 135.625
127 1 40 18.75 135.625
128 1 18.75 18.75 135.625
129 1 18.75 0 135.625
130 1 40 0 135.625
131 1 40 18.75 135.625
132 1 18.75 18.75 135.625
133 1 18.75 0 151.25
134 1 40 0 151.25
135 1 40 18.75 151.25
136 1 18.75 18.75 151.25
137 1 18.75 0 151.25
138 1 40 0 151.25
139 1 40 18.75 151.25
140 1 18.75 18.75 151.25
141 1 18.75 0 240
142 1 40 0 240
143 1 40 18.75 240
144 1 18.75 18.75 240
145 1 18.75 18.75 0
146 1 40 18.75 0
147 1 40 40 0
148 1 18.75 40 0
149 1 18.75 18.75 88.75
150 1 40 18.75 88.75
151 1 40 40 88.75
152 1 18.75 40 88.75
153 1 18.75 18.75 88.75
154 1 40 18.75 88.75
155 1 40 40 88.75
156 1 18.75 40 88.75
157 1 18.75 18.75 104.375
158 1 40 18.75 104.375
159 1 40 40 104.375
160 1 18.75 40 104.375
161 1 18.75 18.75 104.375
162 1 40 18.75 104.375
163 1 40 40 104.375
164 1 18.75 40 104.375
165 1 18.75 18.75 119.375
166 1 40 18.75 119.375
167 1 40 40 119.375
168 1 18.75 40 119.375
169 1 18.75 18.75 119.375
170 1 40 18.75 119.375
171 1 40 40 119.375
172 1 18.75 40 119.375
173 1 18.75 18.75 135.625
174 1 40 18.75 135.625
175 1 40 40 135.625
176 1 18.75 40 135.625
177 1 18.75 18.75 135.625
178 1 40 18.75 135.625
179 1 40 40 135.625
180 1 18.75 40 135.625
181 1 18.75 18.75 151.25
182 1 40 18.75 151.25
183 1 40 40 151.25
184 1 18.75 40 151.25
185 1 18.75 18.75 151.25
186 1 40 18.75 151.25
187 1 40 40 151.25
188 1 18.75 40 151.25
189 1 18.75 18.75 240
190 1 40 18.75 240
191 1 40 40 240
192 1 18.75 40 240
ITEM: TIMESTEP
0
ITEM: NUMBER OF CUBES
24
ITEM: CUBES
1 1 1 2 3 4 5 6 7 8
2 1 9 10 11 12 13 14 15 16
3 1 17 18 19 20 21 22 23 24
4 1 25 26 27 28 29 30 31 32
5 1 33 34 35 36 37 38 39 40
6 1 41 42 43 44 45 46 47 48
7 1 49 50 51 52 53 54 55 56
8 1 57 58 59 60 61 62 63 64
9 1 65 66 67 68 69 70 71 72
10 1 73 74 75 76 77 78 79 80
11 1 81 82 83 84 85 86 87 88
12 1 89 90 91 92 93 94 95 96
13 1 97 98 99 100 101 102 103 104
14 1 105 106 107 108 109 110 111 112
15 1 113 114 115 116 117 118 119 120
16 1 121 122 123 124 125 126 127 128
17 1 129 130 131 132 133 134 135 136
18 1 137 138 139 140 141 142 143 144
19 1 145 146 147 148 149 150 151 152
20 1 153 154 155 156 157 158 159 160
21 1 161 162 163 164 165 166 167 168
22 1 169 170 171 172 173 174 175 176
23 1 177 178 179 180 181 182 183 184
24 1 185 186 187 188 189 190 191 192
