LAMMPS data file via write_data, version 29 Aug 2024, timestep = 0, units = real

7050 atoms
2 atom types
4700 bonds
1 bond types
2350 angles
1 angle types

0 40 xlo xhi
0 40 ylo yhi
0 240 zlo zhi

Masses

1 12.0107
2 15.9994

Pair Coeffs # lj/cut/coul/long/omp

1 0.0536545 2.8
2 0.156989 3.05

Bond Coeffs # harmonic/omp

1 1028.27 1.16

Angle Coeffs # harmonic/omp

1 55.96 180

Atoms # full

6898 2300 1 0.7 12.439988722556933 16.715459366246325 9.60250159000482 0 0 0
6899 2300 2 -0.35 11.561771765138007 16.059199612547857 9.981506896990238 0 0 0
6900 2300 2 -0.35 13.318386433677007 17.371359885851696 9.22325804055999 0 0 0
6905 2302 2 -0.35 17.7318342503365 6.378094324322789 32.664303146130464 0 0 0
6895 2299 1 0.7 16.193854630676903 8.826694595990055 31.791287176998384 0 0 0
6896 2299 2 -0.35 15.190781990397191 8.310378861778535 32.06246219625623 0 0 0
6904 2302 1 0.7 18.38652044987939 5.474763372286052 32.983294227582185 0 0 0
6897 2299 2 -0.35 17.190665524246242 9.353093577115715 31.516246594788782 0 0 0
6918 2306 2 -0.35 8.105871224223103 0.49356716900990694 45.54122332476573 0 0 0
6917 2306 2 -0.35 7.425116747076579 1.4844653099632854 47.52593161210821 0 0 0
6916 2306 1 0.7 7.767053013850761 0.9901675790937567 46.53392589957958 0 0 0
6909 2303 2 -0.35 11.323350266850976 1.1988005130777526 43.828886125564814 0 0 0
6907 2303 1 0.7 10.977992064630014 1.6904373426820873 44.82102750339207 0 0 0
6908 2303 2 -0.35 10.635732843330162 2.1844167086822575 45.81385605471266 0 0 0
6915 2305 2 -0.35 1.2869299047642455 16.123240945343877 48.70989949545858 0 0 0
6914 2305 2 -0.35 1.068253419175565 16.704107545876802 46.47445023237038 0 0 0
6913 2305 1 0.7 1.177644017494337 16.4136557137423 47.59216564815051 0 0 0
79 27 1 0.7 4.869114387083365 2.330985998589161 82.02420360532702 0 0 0
80 27 2 -0.35 4.26793708931841 1.7980952020316248 81.18723615432562 0 0 0
528 176 2 -0.35 8.061142973693117 8.295633778629222 82.19101844339873 0 0 0
527 176 2 -0.35 6.1814557842788185 7.370425696705752 83.19293839025339 0 0 0
526 176 1 0.7 7.122833882620025 7.8359652697753015 82.69695190476787 0 0 0
453 151 2 -0.35 0.5897300357726574 3.791093116028408 83.19834228020824 0 0 0
452 151 2 -0.35 2.359196659006772 2.3543929672806687 83.63736579341534 0 0 0
451 151 1 0.7 1.4715174666624038 3.0720138126016168 83.424710652021 0 0 0
291 97 2 -0.35 8.591481636368856 2.6265274659608817 83.81996819177472 0 0 0
289 97 1 0.7 8.042770472791817 2.1301110362059994 84.71396770157209 0 0 0
25 9 1 0.7 3.003581681335089 6.090102192616374 81.96840630392468 0 0 0
26 9 2 -0.35 3.1887528288124414 4.952012760406508 81.83175755205757 0 0 0
27 9 2 -0.35 2.8231671945723726 7.228610289592957 82.1007071197759 0 0 0
198 66 2 -0.35 8.149962268445215 8.743369985853805 85.31710812523019 0 0 0
81 27 2 -0.35 5.471923699358869 2.8584012561302368 82.86518959610308 0 0 0
3629 1210 2 -0.35 0.2693353301484348 6.799993083487898 83.84635723080693 1 0 0
297 99 2 -0.35 11.78627088239439 12.65436909817333 81.50760957363991 0 0 0
378 126 2 -0.35 4.186217055351209 5.248258123647268 84.74465985830628 0 0 0
377 126 2 -0.35 6.333729268214085 4.661448192836969 85.40416351348404 0 0 0
376 126 1 0.7 5.262550779930061 4.961451489869715 85.07373669850651 0 0 0
369 123 2 -0.35 4.806540569407662 0.2961275337460103 84.41757272870755 0 0 0
367 123 1 0.7 4.548414568851326 1.131383505242511 85.18102699314117 0 0 0
290 97 2 -0.35 7.482726331030436 1.631089637952773 85.60038303684173 0 0 0
243 81 2 -0.35 0.5675055320966473 2.84385631986055 86.19162089212628 0 0 0
287 96 2 -0.35 15.060838477519278 14.01868956224338 84.9591528056841 0 0 0
196 66 1 0.7 8.475752200914318 7.904104243644763 86.04964861415513 0 0 0
40 14 1 0.7 5.271939365668058 8.835095631273708 86.33384089150235 0 0 0
141 47 2 -0.35 2.568530726590854 7.8304064207432456 85.79651882399085 0 0 0
140 47 2 -0.35 1.6924144813696267 5.831372198626127 86.58867145147023 0 0 0
139 47 1 0.7 2.1324949291790465 6.827073176439488 86.18505297000912 0 0 0
41 14 2 -0.35 5.527402389277585 7.703988076884347 86.3884557528666 0 0 0
368 123 2 -0.35 4.304833445785989 1.9820388188022968 85.93298316098296 0 0 0
286 96 1 0.7 15.719888386033421 14.708968147292177 84.29754921037747 0 0 0
2186 729 2 -0.35 0.5166043012369028 0.40640177446610554 82.17544306861328 0 1 0
431 144 2 -0.35 9.033852438770605 4.034721376394368 86.73468713017085 0 0 0
304 102 1 0.7 16.944881222030084 16.99380347476283 86.72153254563675 0 0 0
467 156 2 -0.35 15.244082675424574 1.9855960539328574 80.22624898747394 0 0 0
444 148 2 -0.35 13.323315327932251 4.570621947297967 80.72937020447715 0 0 0
442 148 1 0.7 12.547402086242645 5.304821054553718 81.18412050944852 0 0 0
498 166 2 -0.35 14.082265043743753 4.76817211014024 83.69147567414744 0 0 0
496 166 1 0.7 15.159728163784795 5.1692279426419265 83.84955203747533 0 0 0
468 156 2 -0.35 16.282324875945566 3.4021844987915117 81.74432563885625 0 0 0
466 156 1 0.7 15.75990992208364 2.6948630598097147 80.98618976689355 0 0 0
443 148 2 -0.35 11.76595098992096 6.0336660355288005 81.6375295529167 0 0 0
386 129 2 -0.35 14.838111743548723 7.300639297624775 81.73224403751477 0 0 0
385 129 1 0.7 15.151717984077267 8.370250045059567 82.05769827085074 0 0 0
351 117 2 -0.35 16.442281329473055 0.3632158674458322 82.6905021509064 0 0 0
168 56 2 -0.35 12.248712260984185 8.974361483407577 82.51789718004419 0 0 0
63 21 2 -0.35 13.461183160951846 1.80093727707711 82.80225812356535 0 0 0
62 21 2 -0.35 11.381616538912981 2.4490392477561973 82.00055816838253 0 0 0
61 21 1 0.7 12.418419983446777 2.120669874174049 82.40446523569622 0 0 0
167 56 2 -0.35 11.028891763475857 7.991289731486485 84.23083007248887 0 0 0
166 56 1 0.7 11.633839044051523 8.481357446843077 83.36945596783738 0 0 0
497 166 2 -0.35 16.237557633517977 5.569616187911935 84.00905752646182 0 0 0
371 124 2 -0.35 14.121260915852067 15.575528150234977 81.47145606921929 0 0 0
440 147 2 -0.35 17.521536887709786 7.2713187069175955 86.17396153556342 0 0 0
439 147 1 0.7 18.516837507662437 6.960068904541237 85.66465508041065 0 0 0
285 95 2 -0.35 14.24583637321901 7.796122686632719 84.85338746185639 0 0 0
46 16 1 0.7 11.438681526516726 18.353415321392667 82.79752984976716 0 0 0
283 95 1 0.7 14.255795760394994 7.917214820447143 86.00785418548564 0 0 0
3689 1230 2 -0.35 18.07503688156605 7.874230858247789 82.70760788506121 0 0 0
255 85 2 -0.35 10.219499502595685 12.698574144662508 85.69495157678362 0 0 0
155 52 2 -0.35 17.023686162407653 2.718371659990653 84.85565050429072 0 0 0
132 44 2 -0.35 8.953061717025513 5.772324123305587 83.89027610814601 0 0 0
131 44 2 -0.35 10.943111049165681 4.642348016975432 84.28458381764841 0 0 0
130 44 1 0.7 9.946122312992173 5.204130362914068 84.0893885270592 0 0 0
123 41 2 -0.35 12.817321773505046 3.270302262565828 86.39707836220354 0 0 0
122 41 2 -0.35 11.239530252756978 1.7645011891933677 85.5997207339306 0 0 0
121 41 1 0.7 12.022005514644103 2.524571528071109 85.99768664015723 0 0 0
56 19 2 -0.35 14.444917546228726 0.8480807313552198 85.61100848605136 0 0 0
55 19 1 0.7 15.083760644618312 1.1528491887017818 86.5307314878339 0 0 0
3667 1223 1 0.7 18.311691480645983 0.3666586152453546 86.24890056777264 0 0 0
154 52 1 0.7 17.928054316712927 3.2723728923139968 84.38141137360886 0 0 0
3556 1186 1 0.7 0.8279507064964358 14.705971037012647 85.65742316395648 1 0 0
518 173 2 -0.35 8.728597746045535 11.296200852867438 81.23993954474857 0 0 0
185 62 2 -0.35 5.027267741401721 18.70103337929058 84.53530053123447 0 0 0
435 145 2 -0.35 8.623048085437638 13.939869138394624 83.17530921384358 0 0 0
6921 2307 2 -0.35 3.4561817831338 10.005349512872533 83.40330789120216 0 0 0
6920 2307 2 -0.35 1.177106815668544 9.701915486689574 83.73234564647551 0 0 0
6919 2307 1 0.7 2.3174061088009537 9.848723377628216 83.56790510861131 0 0 0
7 3 1 0.7 17.967711993145098 10.16395378500735 86.3400481493883 0 0 0
42 14 2 -0.35 5.013787795207461 9.965943044985607 86.28505113581494 0 0 0
254 85 2 -0.35 7.954251803691664 12.2785346283439 85.98262856990078 0 0 0
253 85 1 0.7 9.085444079661087 12.494607352544211 85.83648178779946 0 0 0
316 106 1 0.7 3.240120310793866 12.33403350969981 86.41492113053332 0 0 0
447 149 2 -0.35 8.598288467513086 15.466261762688367 85.96423760481464 0 0 0
445 149 1 0.7 8.156889293548925 16.212476316274333 86.73598781307814 0 0 0
129 43 2 -0.35 4.965878481180234 15.96357593808324 86.1770321482789 0 0 0
405 135 2 -0.35 6.08636790876705 16.0517762568257 83.17136349412831 0 0 0
404 135 2 -0.35 3.765642443349318 16.14210305269307 83.15639982300011 0 0 0
403 135 1 0.7 4.925677196479888 16.098342919125244 83.16732438121186 0 0 0
144 48 2 -0.35 6.523968368510108 10.901747585767081 83.51811891790841 0 0 0
143 48 2 -0.35 5.243274057472198 12.707962283078961 84.21735310885242 0 0 0
142 48 1 0.7 5.882226085299946 11.80225850178265 83.87147185435433 0 0 0
135 45 2 -0.35 8.020763110201916 18.394694829253545 84.70223269118976 0 0 0
3558 1186 2 -0.35 1.9714549893718365 14.899075430161728 85.7156904872705 1 0 0
3572 1191 2 -0.35 0.7783831583403484 17.300393053052364 84.1278145773636 1 0 0
2115 705 2 -0.35 2.664287300133432 18.283487863340063 86.57097492673563 0 0 0
3571 1191 1 0.7 1.432962652992891 18.19654449776885 83.78897683677216 1 0 0
317 106 2 -0.35 2.5100532336127515 11.864482696143654 85.64498867422304 0 0 0
387 129 2 -0.35 15.462305614848397 9.441059097187928 82.38169916477973 0 0 0
86 29 2 -0.35 18.50584933295418 14.410937906549991 85.79050612927365 0 0 0
372 124 2 -0.35 14.977187411839486 17.697653092904613 81.86600578565584 0 0 0
64 22 1 0.7 14.37166967087741 11.183269851952764 84.59065868495406 0 0 0
66 22 2 -0.35 13.629770995541534 11.589059362372721 83.79617650251596 0 0 0
44 15 2 -0.35 16.81353763177203 12.22291411476361 83.17571934654906 0 0 0
43 15 1 0.7 17.570750685548333 11.567339855219766 82.58839846391727 0 0 0
517 173 1 0.7 9.24455631464454 11.049797457828477 82.24955370133883 0 0 0
45 15 2 -0.35 18.323797797008762 10.911707859330333 81.99602930249729 0 0 0
433 145 1 0.7 8.960063370351367 15.046711023965306 83.07345809244231 0 0 0
288 96 2 -0.35 16.364730171029 15.411124667268314 83.63590179855441 0 0 0
295 99 1 0.7 11.853170867134082 13.411541563806486 82.384078997083 0 0 0
48 16 2 -0.35 11.864516035755416 17.89390010200366 81.82103919474476 0 0 0
65 22 2 -0.35 15.10466284328907 10.771771734217399 85.39285613718067 0 0 0
9 3 2 -0.35 18.213703667303648 10.262739933288396 85.2096328865828 0 0 0
381 127 2 -0.35 13.321187920271612 16.572595517877286 84.49531205851197 0 0 0
292 98 1 0.7 11.190722796471693 10.039828342780762 86.68205394312112 0 0 0
296 99 2 -0.35 11.887603170351381 14.17828333899972 83.25496718527161 0 0 0
305 102 2 -0.35 15.960984431145516 16.37902294264259 86.67252751404129 0 0 0
294 98 2 -0.35 12.196078415951947 10.050362863138746 86.10261436023671 0 0 0
434 145 2 -0.35 9.314868807455952 16.146272640088824 82.95936944908674 0 0 0
519 173 2 -0.35 9.766898868339418 10.81814639153076 83.26090398272457 0 0 0
380 127 2 -0.35 12.142058421238186 15.702914656021074 86.29765971871684 0 0 0
370 124 1 0.7 14.547371947838542 16.637584919473827 81.6679214247517 0 0 0
379 127 1 0.7 12.731822456296156 16.13513542456545 85.39612483726847 0 0 0
510 170 2 -0.35 8.435570959353772 2.1131354814908088 99.25371553664026 0 0 0
529 177 1 0.7 6.384180707626497 6.909832594913326 90.63297328727782 0 0 0
508 170 1 0.7 7.818647314379335 1.6944847827326746 98.36374087140412 0 0 0
491 164 2 -0.35 8.480833710187373 7.22970911782735 98.96227709949852 0 0 0
490 164 1 0.7 8.946606552274998 8.139203834358923 98.41104624531192 0 0 0
437 146 2 -0.35 2.7491640746646477 7.218097957094563 98.98789730551502 0 0 0
436 146 1 0.7 2.171255472300658 8.037344186765134 98.40240888087766 0 0 0
10 4 1 0.7 2.0553330603353164 1.5962499380696054 94.31064656132978 0 0 0
11 4 2 -0.35 1.780927875398698 2.645863648709436 93.89601772103954 0 0 0
420 140 2 -0.35 5.998740890742229 6.580126121141556 97.20264198228222 0 0 0
419 140 2 -0.35 6.935453725918987 4.523562395184834 97.74108178978412 0 0 0
418 140 1 0.7 6.466580695337408 5.552031312680212 97.47472832276661 0 0 0
12 4 2 -0.35 2.3205059697119776 0.5470008278347024 94.72968945565378 0 0 0
384 128 2 -0.35 5.275951380755864 2.258429151485881 99.71672858342893 0 0 0
530 177 2 -0.35 5.249424711131055 6.722411701928125 90.47485753335675 0 0 0
531 177 2 -0.35 7.515348339833022 7.113571983947871 90.79663784531827 0 0 0
157 53 1 0.7 6.055417604786831 1.4195641645979074 88.15605553530628 0 0 0
462 154 2 -0.35 16.38992370649798 12.828515892560565 87.4611767374766 0 0 0
348 116 2 -0.35 3.167767230341165 6.953190801572783 95.64720959074799 0 0 0
347 116 2 -0.35 4.304995199170795 5.063453124123999 94.92042547918824 0 0 0
346 116 1 0.7 3.737621482823372 6.007429535160273 95.28779029346155 0 0 0
293 98 2 -0.35 10.182288386672166 10.027727306427861 87.2565091782668 0 0 0
8 3 2 -0.35 17.72639790238693 10.05189231439877 87.46975506771001 0 0 0
535 179 1 0.7 3.159864077834446 4.21007712823678 98.80655949526091 0 0 0
536 179 2 -0.35 2.5527770857217074 3.9629205699455703 99.76510452084923 0 0 0
1983 661 2 -0.35 2.808068861932802 1.1306267107973962 98.02612648000729 0 1 0
537 179 2 -0.35 3.7699537983728906 4.453927853297899 97.84996788887157 0 0 0
3769 1257 1 0.7 0.03635950384422347 4.321064283188801 95.79478807552502 1 0 0
165 55 2 -0.35 3.813687495546027 4.069804688140603 91.43479079915774 0 0 0
164 55 2 -0.35 2.7863557337321865 5.864508793853621 92.49210284547807 0 0 0
163 55 1 0.7 3.298945746802827 4.968445981203367 91.95960290222187 0 0 0
334 112 1 0.7 1.9474264553942469 18.655726586174538 96.5120279303721 0 0 0
180 60 2 -0.35 0.36667690103444867 7.737214512343955 91.74599439354222 0 0 0
108 36 2 -0.35 8.246350209074892 8.656772585560146 93.61516303611712 0 0 0
107 36 2 -0.35 6.357769983034423 7.317496976486849 93.78928079577261 0 0 0
106 36 1 0.7 7.304089131948942 7.985058482737135 93.70380941512974 0 0 0
5 2 2 -0.35 15.01862198256099 10.183563329045883 89.36913185541461 0 0 0
78 26 2 -0.35 6.736492647577109 3.0525044998587005 94.79778485426004 0 0 0
77 26 2 -0.35 4.833220385976684 2.0652659619772433 95.68946886492174 0 0 0
76 26 1 0.7 5.785313957628491 2.5578861825986134 95.24291860525668 0 0 0
175 59 1 0.7 18.276563248326575 14.904494612041447 90.0262118847412 0 0 0
438 146 2 -0.35 1.5879195043898582 8.85413122243335 97.81839330468061 0 0 0
492 164 2 -0.35 9.411736073560482 9.046439607664354 97.8564881595046 0 0 0
112 38 1 0.7 4.448699999130917 1.1775137468063688 91.51667431978997 0 0 0
1981 661 1 0.7 3.4172494124971107 0.2198228422176202 97.64043391477463 0 1 0
284 95 2 -0.35 14.249973344434917 8.045651702636388 87.16100146470286 0 0 0
509 170 2 -0.35 7.2119708891290495 1.2488609433394593 97.47963487136019 0 0 0
114 38 2 -0.35 4.619672044297865 1.3217273017261701 92.65589489599101 0 0 0
3770 1257 2 -0.35 1.022210879106397 4.486191024848724 96.38471791936998 1 0 0
113 38 2 -0.35 4.283688454133788 1.0493731646936149 90.37529238783239 0 0 0
354 118 2 -0.35 3.015365355633083 9.10670237400924 91.07899058732342 0 0 0
411 137 2 -0.35 1.3235761821607461 1.773484299782595 90.69562883563883 0 0 0
188 63 2 -0.35 7.094435509660217 4.17240606969798 91.76789818628859 0 0 0
110 37 2 -0.35 18.647637474962952 4.90785291637209 93.96978733691634 0 0 0
187 63 1 0.7 7.262801087250174 3.0728503499496336 91.4376111557029 0 0 0
189 63 2 -0.35 7.424173965186013 1.9742099669045137 91.09855855644696 0 0 0
93 31 2 -0.35 8.955460630745087 6.120719715193489 96.0513925606117 0 0 0
1985 662 2 -0.35 9.039853428021305 0.5395143448446231 88.51117449737124 0 1 0
257 86 2 -0.35 4.343553389249965 5.034922066134996 87.92541235157076 0 0 0
256 86 1 0.7 3.6635694379211006 4.130570731610818 88.18371094034394 0 0 0
178 60 1 0.7 0.18501097533565453 7.280532109502766 92.79760487209396 0 0 0
410 137 2 -0.35 1.1287630022271842 0.5920547977171159 88.70492575151307 0 0 0
158 53 2 -0.35 6.16577565458167 2.5507970430768947 88.39166872434173 0 0 0
432 144 2 -0.35 8.313053352982456 4.686200157225043 88.84390130229443 0 0 0
478 160 1 0.7 0.578102448443163 6.079676759105261 89.3692207063532 0 0 0
409 137 1 0.7 1.234411350536506 1.1814197730339167 89.70036632591498 0 0 0
352 118 1 0.7 2.6030311486122937 8.886839839007074 90.01651049739796 0 0 0
480 160 2 -0.35 1.6566332694100345 5.760427839501798 89.6569467568351 0 0 0
258 86 2 -0.35 2.973543528834939 3.230223210668459 88.42929295347466 0 0 0
95 32 2 -0.35 7.322951070627264 9.151552553166196 88.53077040650469 0 0 0
353 118 2 -0.35 2.2012937812620548 8.665824143593547 88.9491363065149 0 0 0
159 53 2 -0.35 5.954282549189087 0.2877980803953226 87.91944899094568 0 0 0
430 144 1 0.7 8.66803840876083 4.367477557469463 87.78523376870936 0 0 0
241 81 1 0.7 0.21960761622584968 3.16936591517201 87.24959846921487 0 0 0
3686 1229 2 -0.35 18.677182253027453 4.3047332807406535 87.00699167727096 0 0 0
169 57 1 0.7 9.733223010845313 4.68211081596482 99.73908490830817 0 0 0
344 115 2 -0.35 14.759134897469707 5.50256901754918 91.41334364648979 0 0 0
36 12 2 -0.35 17.16813511761621 3.3625190589914746 91.74098620468615 0 0 0
488 163 2 -0.35 13.09967426717473 3.0814978538784246 92.76589152343152 0 0 0
1923 641 2 -0.35 10.870463642388277 0.6591005944456658 93.82566602757824 0 1 0
338 113 2 -0.35 15.51520786410072 1.212254798812237 93.52125567135677 0 0 0
34 12 1 0.7 17.604540611052197 4.344815042487247 91.30153169947505 0 0 0
512 171 2 -0.35 16.720380412132588 9.204384164649515 95.21364094282848 0 0 0
506 169 2 -0.35 10.749637833068974 7.686449369839541 90.28609210335591 0 0 0
505 169 1 0.7 10.949804100573933 8.400390263517334 91.17958350879378 0 0 0
1921 641 1 0.7 10.23658211055336 1.5893310764783464 93.54121876866566 0 1 0
489 163 2 -0.35 13.91228378815068 2.5916323390852587 90.6466203622601 0 0 0
327 109 2 -0.35 11.004697722131167 3.0134707923295743 88.76202865639156 0 0 0
232 78 1 0.7 10.438003380242177 13.973628018174658 96.48624384157708 0 0 0
160 54 1 0.7 12.30482333838659 5.889062710653236 88.02027704044806 0 0 0
423 141 2 -0.35 10.587081291839965 4.673115705334727 91.29562487408843 0 0 0
422 141 2 -0.35 9.533353027477066 5.944002371853807 92.9268919262416 0 0 0
421 141 1 0.7 10.05487604340313 5.306148248761286 92.10973810506565 0 0 0
417 139 2 -0.35 13.564256753605932 6.6537267495718435 95.59007246443437 0 0 0
416 139 2 -0.35 12.60604604031269 6.448597974492682 93.48533844500031 0 0 0
415 139 1 0.7 13.08047072369589 6.551773518249077 94.54028236318773 0 0 0
363 121 2 -0.35 10.904858902692322 8.423003850885461 95.22870608122636 0 0 0
339 113 2 -0.35 17.15035936154556 2.2161893049233217 94.82823233241872 0 0 0
337 113 1 0.7 16.334561754806565 1.7151189246427254 94.17209943701278 0 0 0
333 111 2 -0.35 16.75231463223194 4.1502856273673725 99.39996213801743 0 0 0
1965 655 2 -0.35 12.708500938764661 0.33777401188067374 88.16452294350849 0 1 0
20 7 2 -0.35 16.739439455432983 7.308424898568765 92.83108538724046 0 0 0
471 157 2 -0.35 16.19124769799779 4.215791761973513 88.78444040740396 0 0 0
237 79 2 -0.35 11.417266433596586 0.9815678404811529 99.19155830677448 0 0 0
235 79 1 0.7 10.872759662496023 0.6281530470351829 100.15389247106158 0 0 0
228 76 2 -0.35 14.993652312434396 4.044649891131889 96.66958759155182 0 0 0
227 76 2 -0.35 13.502776982279666 4.710043601639434 98.32174895885896 0 0 0
226 76 1 0.7 14.24856881171346 4.3778211555160125 97.49588069089627 0 0 0
219 73 2 -0.35 12.524541381086951 2.0873230914337126 96.55440740598615 0 0 0
218 73 2 -0.35 10.206257945919338 1.9514075650672364 96.54774349495378 0 0 0
217 73 1 0.7 11.365457148132666 2.0202834841378987 96.55544428441907 0 0 0
28 10 1 0.7 16.994249933652366 6.492351327110403 97.19910065959508 0 0 0
29 10 2 -0.35 15.988158166496179 6.799525886271341 97.68986510408277 0 0 0
30 10 2 -0.35 17.99579863539668 6.185783603073708 96.69977575645622 0 0 0
203 68 2 -0.35 12.601874089055032 8.537826378324826 98.01799255266182 0 0 0
171 57 2 -0.35 10.179487511860737 4.592580296111656 98.6702429779505 0 0 0
343 115 1 0.7 14.373884097627174 6.582709573529139 91.23525809741801 0 0 0
102 34 2 -0.35 14.545397767531695 1.9024883740003096 99.1611968905198 0 0 0
100 34 1 0.7 14.46357481348266 0.8390308712923144 98.70290125476917 0 0 0
92 31 2 -0.35 10.836773292898945 4.856165103023184 95.54567389715766 0 0 0
91 31 1 0.7 9.894673899175986 5.486796462714515 95.79808666414348 0 0 0
60 20 2 -0.35 17.432972328634257 1.2168467529859133 97.98681195529663 0 0 0
58 20 1 0.7 18.409944338742648 1.0114828193020444 97.39390766325138 0 0 0
1922 641 2 -0.35 9.61548144129811 2.5314980595648144 93.26868142254152 0 1 0
272 91 2 -0.35 17.749388607628752 9.27254861151617 98.31536038695006 0 0 0
35 12 2 -0.35 18.05343304347392 5.325793162603245 90.86854304731332 0 0 0
487 163 1 0.7 13.515072093363079 2.834767073025026 91.70966731359071 0 0 0
19 7 1 0.7 17.807804549664194 7.611428204862054 93.17159233342055 0 0 0
345 115 2 -0.35 13.994399182755245 7.668035263975328 91.0688544183184 0 0 0
261 87 2 -0.35 17.73546918916467 8.797136241092346 90.34529593842387 0 0 0
260 87 2 -0.35 16.393581810898205 7.3232419881696895 89.15684544602568 0 0 0
259 87 1 0.7 17.0608189084053 8.070757669935013 89.74143708239967 0 0 0
326 109 2 -0.35 10.980709439855266 1.6303223987596414 90.62496628610207 0 0 0
395 132 2 -0.35 10.694569134041616 17.46847497432879 88.46336417049655 0 0 0
507 169 2 -0.35 11.161764218230882 9.098771366749839 92.08200056762925 0 0 0
202 68 1 0.7 13.592919191597215 9.030158984015353 97.66893342727549 0 0 0
469 157 1 0.7 15.699942689641425 4.66168555169471 87.83263780212177 0 0 0
162 54 2 -0.35 12.87213499870522 5.533239943937294 88.9683323140328 0 0 0
325 109 1 0.7 10.992787002089404 2.3251652723151177 89.69561790934237 0 0 0
57 19 2 -0.35 15.733260178113262 1.4549006732493257 87.44412127453016 0 0 0
475 159 1 0.7 1.452008981339478 12.63511110989677 89.11008766162693 0 0 0
476 159 2 -0.35 1.0213800913912592 13.454345006918354 88.40812208694929 0 0 0
276 92 2 -0.35 6.393020317140018 12.008150977259913 89.02297214756342 0 0 0
493 165 1 0.7 5.300448043591476 18.305086407159646 98.1550393926678 0 0 0
374 125 2 -0.35 0.2894916082524102 16.773297900953494 87.73337555353342 0 0 0
336 112 2 -0.35 1.3832741052073192 18.34599621290208 97.47715468823817 0 0 0
252 84 2 -0.35 0.21696649879641589 10.616409582588606 87.36682694118794 0 0 0
477 159 2 -0.35 1.8978389146344878 11.807431871401263 89.7911219214188 0 0 0
96 32 2 -0.35 8.80160855911616 10.102392916370682 90.04819724009064 0 0 0
275 92 2 -0.35 6.626291801819469 14.143296833592508 88.1405471583901 0 0 0
205 69 1 0.7 2.1371108219999995 15.53801425338202 91.82576493752579 0 0 0
221 74 2 -0.35 15.15212750907195 12.598305635508614 98.46938363927586 0 0 0
206 69 2 -0.35 1.9900485856710513 16.266016921851865 92.71715084276322 0 0 0
3852 1284 2 -0.35 0.7276384911722755 11.492978042469923 99.08176208626182 1 0 0
3560 1187 2 -0.35 0.13777589530078596 16.58530560473234 95.22820801707687 1 0 0
2 1 2 -0.35 6.6150863434362 15.37229408375649 95.58197872241637 0 0 0
546 182 2 -0.35 9.201909438988851 17.91319289052367 99.70654843950862 0 0 0
455 152 2 -0.35 6.314537294335775 12.703617348732994 98.22501395378742 0 0 0
454 152 1 0.7 7.020053361857205 13.624301227465786 98.28563129495852 0 0 0
390 130 2 -0.35 4.524361979675419 9.677667934857809 97.07666159115463 0 0 0
389 130 2 -0.35 6.628338622416276 9.655617990097817 96.09484930961764 0 0 0
388 130 1 0.7 5.578229620443953 9.663555845522751 96.58948349889275 0 0 0
366 122 2 -0.35 6.5955837130948005 9.716246051814716 99.33721326648096 0 0 0
234 78 2 -0.35 10.437962124648804 13.467222409681707 97.52988987957882 0 0 0
314 105 2 -0.35 4.395062145588367 18.599788134219274 89.44296333979607 0 0 0
246 82 2 -0.35 3.280843555677458 12.621394291647023 97.73515433957539 0 0 0
245 82 2 -0.35 3.763615672401251 11.365760113281233 99.62882968354701 0 0 0
244 82 1 0.7 3.519554428909109 11.992840313575197 98.68210253213311 0 0 0
240 80 2 -0.35 7.686439808007712 16.737794866554918 92.8667370927246 0 0 0
238 80 1 0.7 8.349410765683553 17.096156113113675 91.9831082549989 0 0 0
230 77 2 -0.35 8.019127492687595 12.570064187224615 95.621952044812 0 0 0
138 46 2 -0.35 6.773101636755276 14.160608857883872 91.27503283646581 0 0 0
541 181 1 0.7 4.090440843661842 13.770616727523036 95.14915136076779 0 0 0
183 61 2 -0.35 3.366188238536219 15.943791802810148 98.14345408895979 0 0 0
182 61 2 -0.35 1.250895514092927 15.084448131099657 97.72015230079657 0 0 0
181 61 1 0.7 2.3081845489264987 15.511635311262232 97.93877434305065 0 0 0
174 58 2 -0.35 5.980752666157435 9.830118979778156 91.44702688004405 0 0 0
173 58 2 -0.35 4.7911917475154855 11.790519770991455 91.81836927050863 0 0 0
172 58 1 0.7 5.388484986165058 10.811074532722563 91.63750733547852 0 0 0
542 181 2 -0.35 3.392911833612233 14.689649290540022 95.28174153148451 0 0 0
137 46 2 -0.35 5.032359038583469 14.970139009637531 92.58030418751343 0 0 0
117 39 2 -0.35 4.294399104849835 18.145125222427676 92.67258737542905 0 0 0
116 39 2 -0.35 5.475887911560734 18.144253793015306 94.67134640981669 0 0 0
115 39 1 0.7 4.884127709969097 18.143719113746894 93.6723934832559 0 0 0
543 181 2 -0.35 4.782305630935907 12.84782202176829 95.01300842982666 0 0 0
104 35 2 -0.35 9.00150458518434 11.636204351100263 99.46230048615662 0 0 0
99 33 2 -0.35 1.736878660727914 9.498115310685126 94.19819951330383 0 0 0
98 33 2 -0.35 4.050391616563959 9.617081423763619 94.04448578967492 0 0 0
97 33 1 0.7 2.893640267294533 9.553780169231501 94.11970395611117 0 0 0
239 80 2 -0.35 9.011374758724248 17.455127013794137 91.09949354225456 0 0 0
1 1 1 0.7 7.4918707852835675 16.112356473462707 95.76149678109465 0 0 0
3 1 2 -0.35 8.378041939266488 16.842242999323705 95.93502803633197 0 0 0
456 152 2 -0.35 7.722124889413614 14.54764654271417 98.33629121601207 0 0 0
231 77 2 -0.35 7.4206462350673075 11.776788197340991 93.52427726239141 0 0 0
229 77 1 0.7 7.7219471040851095 12.164729026994564 94.57539159631037 0 0 0
3559 1187 1 0.7 0.23646910738886595 15.510388462508345 94.79813483653761 1 0 0
516 172 2 -0.35 1.3893388950470973 18.140970099569248 90.43463452636038 0 0 0
3561 1187 2 -0.35 0.34011743414485957 14.438077956453453 94.36535820641619 1 0 0
136 46 1 0.7 5.9029292130678455 14.56412223966009 91.92815925909913 0 0 0
495 165 2 -0.35 6.226756801396501 17.612148637745605 98.0578179849166 0 0 0
315 105 2 -0.35 5.969677618040183 17.102396651972665 90.2600691209393 0 0 0
207 69 2 -0.35 2.282201615586139 14.80924957918605 90.93470705697305 0 0 0
313 105 1 0.7 5.190196490563254 17.859614342219373 89.8518213473784 0 0 0
274 92 1 0.7 6.511380892807606 13.074256639230338 88.57854704443153 0 0 0
446 149 2 -0.35 7.723586461012716 16.95646701101955 87.5141283677906 0 0 0
94 32 1 0.7 8.061387039718925 9.626918021601227 89.29078034656712 0 0 0
128 43 2 -0.35 3.8291388197993297 15.788795657526064 88.1941611817045 0 0 0
127 43 1 0.7 4.390654414223308 15.868014959721126 87.18102124838005 0 0 0
318 106 2 -0.35 3.950662180061574 12.804287226729132 87.20300262274466 0 0 0
216 72 2 -0.35 9.86087328102004 14.384564467286424 92.32487104088005 0 0 0
23 8 2 -0.35 18.315847084183346 13.565498376597555 98.71060052766236 0 0 0
308 103 2 -0.35 9.530450080046265 12.861047281244597 88.78382069534791 0 0 0
190 64 1 0.7 14.894415965012577 16.93278056561801 89.47794880809901 0 0 0
4 2 1 0.7 13.87076682941851 10.039798505579515 89.26911605155189 0 0 0
233 78 2 -0.35 10.433916067174229 14.477570873275768 95.4401576376518 0 0 0
511 171 1 0.7 16.88420940404262 10.264535139566028 95.65638087617705 0 0 0
214 72 1 0.7 11.003570192354898 14.349573392177994 92.52896361365812 0 0 0
396 132 2 -0.35 11.10104071222393 15.497673843885199 89.62227131913924 0 0 0
309 103 2 -0.35 11.14420203302641 12.34034306988371 90.36981237521879 0 0 0
2277 759 2 -0.35 14.809656391921026 18.25299333255346 92.12188026307444 0 0 0
192 64 2 -0.35 16.00710944108195 16.734733303618995 89.74382852608213 0 0 0
307 103 1 0.7 10.337058459789167 12.600712764380551 89.57793341540895 0 0 0
544 182 1 0.7 9.797024427749337 17.16066784994523 99.05339374215743 0 0 0
461 154 2 -0.35 14.10210118133719 12.700900907526178 87.83541267975063 0 0 0
177 59 2 -0.35 18.26103057144919 14.884805619136076 88.86546429054958 0 0 0
545 182 2 -0.35 10.40204428318791 16.405626045001128 98.41185520302957 0 0 0
215 72 2 -0.35 12.144626850883819 14.316167387238966 92.7401139783427 0 0 0
176 59 2 -0.35 18.28727230700002 14.94579733171211 91.18631824443885 0 0 0
397 133 1 0.7 16.274607492628753 12.280620185866503 91.5090014773614 0 0 0
39 13 2 -0.35 16.58782570824268 18.588665691004742 97.21172034965704 0 0 0
361 121 1 0.7 10.637063755584288 9.53933982193341 95.05328804168722 0 0 0
357 119 2 -0.35 17.525307823753646 16.568708571506956 94.02823639435233 0 0 0
103 35 1 0.7 10.139811821800892 11.411693408926325 99.50845375582495 0 0 0
273 91 2 -0.35 16.272492496219414 9.987453209412566 99.95906871389508 0 0 0
6 2 2 -0.35 12.724010947043807 9.892629940494123 89.16149769096867 0 0 0
51 17 2 -0.35 10.855920727467204 17.129579523166434 93.61907358565335 0 0 0
204 68 2 -0.35 14.583500119366109 9.527779122859044 97.32519455034758 0 0 0
220 74 1 0.7 15.425882026904727 13.404668979942873 99.25873711513314 0 0 0
394 132 1 0.7 10.904973646222048 16.484252359304342 89.04271543351723 0 0 0
525 175 2 -0.35 15.383185537059072 14.59602581315405 93.09468898206953 0 0 0
524 175 2 -0.35 14.143547542032767 16.19344555308246 94.23522102694837 0 0 0
523 175 1 0.7 14.760834750752261 15.38792412042839 93.67052926365422 0 0 0
513 171 2 -0.35 17.053428823031567 11.324778768166341 96.09532277730403 0 0 0
474 158 2 -0.35 13.732865944693467 10.843459995472665 92.06948680827308 0 0 0
473 158 2 -0.35 13.586118645616425 9.63324199680537 94.0446273660169 0 0 0
472 158 1 0.7 13.65886877227832 10.236504594754274 93.05501821751027 0 0 0
191 64 2 -0.35 13.78308555974282 17.12458267133617 89.20323054532106 0 0 0
429 143 2 -0.35 12.718471314750973 11.75444136931218 96.60207197920784 0 0 0
428 143 2 -0.35 14.312126976945178 12.468587291108067 95.07488334277414 0 0 0