LAMMPS data file via write_data, version 29 Aug 2024, timestep = 200000, units = real

7050 atoms
2 atom types
4700 bonds
1 bond types
2350 angles
1 angle types

0 40 xlo xhi
0 40 ylo yhi
0 240 zlo zhi

Masses

1 12.0107
2 15.9994

Pair Coeffs # lj/cut/coul/long/omp

1 0.0536545 2.8
2 0.156989 3.05

Bond Coeffs # harmonic/omp

1 1028.27 1.16

Angle Coeffs # harmonic/omp

1 55.96 180

Atoms # full

1442 481 2 -0.35 17.807784637173746 6.381836360255688 22.373621772551996 2 -1 1
1441 481 1 0.7 18.600882670460596 5.595932928180814 22.69718861206907 2 -1 1
1443 481 2 -0.35 19.393972591389698 4.798852700154094 22.960843617362155 2 -1 1
7029 2343 2 -0.35 2.700084124742807 11.800150491810413 26.40994186585051 2 -4 1
3473 1158 2 -0.35 0.6364538623307249 11.123099409490226 90.39333843194947 1 0 0
156 52 2 -0.35 10.920221421540461 17.290228700342723 56.91962335950488 0 0 0
154 52 1 0.7 10.941250038282408 17.197595855499344 58.07377227746899 0 0 0
155 52 2 -0.35 10.998983133364264 17.1429555237027 59.27101953962125 0 0 0
3772 1258 1 0.7 6.28262678248422 5.6508721081906845 73.50044844714158 0 0 0
3774 1258 2 -0.35 5.699844953598555 4.733679326043988 73.11385911300903 0 0 0
1758 586 2 -0.35 2.9623389268670586 18.909883286751246 91.62898157305568 0 0 0
3519 1173 2 -0.35 19.724402331209777 18.80638111940449 77.43256112187115 0 0 0
6905 2302 2 -0.35 10.235695822859093 7.365462174364758 73.42690424460584 6 4 0
6972 2324 2 -0.35 19.649704653384816 6.521453469356543 70.53597387539928 0 1 0
11 4 2 -0.35 12.41966479936709 8.891252334162004 91.59948335325666 0 0 0
289 97 1 0.7 4.921415716864822 18.734873500238905 72.83285690652401 0 0 0
192 64 2 -0.35 3.5534528894432755 16.023727312896 70.41624046582974 0 0 0
190 64 1 0.7 2.518428277705193 16.475140121883022 70.74183314841541 0 0 0
3773 1258 2 -0.35 6.856597573609406 6.541038290857557 73.94610831214068 0 0 0
2088 696 2 -0.35 9.059366265110183 2.406859399059155 75.61267056292397 0 1 0
2087 696 2 -0.35 8.4849247417021 3.411906941345959 77.60943700165916 0 1 0
3666 1222 2 -0.35 3.573217023478027 8.625249062150457 77.49385772015141 1 0 0
6921 2307 2 -0.35 4.528854951206478 4.468829743053114 77.38944505992548 -1 -1 0
6920 2307 2 -0.35 3.8416742694137644 5.543805445780099 79.30256714944454 -1 -1 0
6919 2307 1 0.7 4.289906257110363 5.0561179818029025 78.3537487830772 -1 -1 0
45 15 2 -0.35 2.0588085389096182 2.5912723772961215 78.55394200609705 0 0 0
43 15 1 0.7 1.264041594146613 2.378160436101448 77.7212478301671 0 0 0
44 15 2 -0.35 0.4294219821328289 2.2262305313651383 76.91996452361197 0 0 0
517 173 1 0.7 4.615922846322501 2.5946162191082447 75.50242979397441 0 1 0
130 44 1 0.7 5.681175179830542 8.926171966510957 80.61540037415084 0 0 0
519 173 2 -0.35 3.4720347359323838 2.422151331190517 75.52702792829461 0 1 0
131 44 2 -0.35 5.195505107127811 7.884575458012416 80.84941974027699 0 0 0
518 173 2 -0.35 5.762017361827557 2.744023752005724 75.48528512558471 0 1 0
2086 696 1 0.7 8.734899283896752 2.921490052917654 76.5766652472047 0 1 0
5724 1908 2 -0.35 7.7187471085327 5.866228192940919 81.76955755786516 1 1 0
5424 1808 2 -0.35 5.954493207313228 1.9993595207262826 80.44201542891415 1 0 0
5422 1808 1 0.7 5.26613517843252 1.315437375872269 79.82928949966465 1 0 0
2283 761 2 -0.35 3.3639490469788975 5.24541194262725 83.73561583848387 0 1 0
2030 677 2 -0.35 9.006596113157977 3.20618428056005 80.6191541301904 0 1 0
2029 677 1 0.7 9.031091490676735 2.0771437932863988 80.41386396314127 0 1 0
462 154 2 -0.35 6.357939611292426 8.59499652796702 76.8088400485133 0 0 0
3664 1222 1 0.7 3.6563756164971 8.107445597079067 76.46173374641522 1 0 0
64 22 1 0.7 1.9481163844267249 8.518697284983762 80.51704730126733 0 0 0
2281 761 1 0.7 4.113640132699863 4.843013340339114 82.9508154685211 0 1 0
2282 761 2 -0.35 4.773245677498848 4.505074143000801 82.09856085287306 0 1 0
5423 1808 2 -0.35 4.567135509282782 0.732360094897206 79.12197078787415 1 0 0
297 99 2 -0.35 6.723365988766093 0.13279577874689674 76.52845712662798 0 1 0
132 44 2 -0.35 6.115980165615001 9.979996617679719 80.30131864427268 0 0 0
460 154 1 0.7 7.351658930922155 8.618958331889482 76.23873798264441 0 0 0
2015 672 2 -0.35 1.1329565417690897 3.6709138167440596 82.4295742264007 0 1 0
227 76 2 -0.35 12.258866653871245 0.4466880068182121 85.9575898731467 0 0 0
3665 1222 2 -0.35 3.736027728516282 7.593581890106719 75.43437442337087 1 0 0
3504 1168 2 -0.35 7.766513495844995 6.4415254247384235 78.84862069220581 0 1 0
66 22 2 -0.35 2.4467098031800623 9.268767337802714 81.2975955682551 0 0 0
3756 1252 2 -0.35 1.6952762293988608 5.26865919857931 76.00937116293814 1 0 0
3754 1252 1 0.7 2.009999980267016 4.908182317922465 74.94133872309006 1 0 0
461 154 2 -0.35 8.450115008534848 8.740360019335542 75.81196425006699 0 0 0
65 22 2 -0.35 1.4099929257269352 7.856453305273197 79.74498395388353 0 0 0
3755 1252 2 -0.35 2.3610791215683586 4.664893010228246 73.83419144393513 1 0 0
6904 2302 1 0.7 10.086339291343995 6.737285688611929 74.40908920897816 6 4 0
2166 722 2 -0.35 9.79830686746698 1.086541494974183 84.07008321490767 0 1 0
3502 1168 1 0.7 8.914622873536084 6.285236504348486 78.85350348361165 0 1 0
6986 2329 2 -0.35 18.383129520860155 1.8299578910283356 76.62262812360392 -3 2 1
2031 677 2 -0.35 9.066021614540105 0.9500928593899782 80.13497245189203 0 1 0
6987 2329 2 -0.35 17.22978793724834 2.7214634022366058 78.420759048069 -3 2 1
6985 2329 1 0.7 17.83859342243195 2.307621832569671 77.53194621782146 -3 2 1
6924 2308 2 -0.35 12.946136941785952 6.386443881136932 74.78063481192478 -3 -2 0
6923 2308 2 -0.35 15.043909821535074 7.541411806911105 74.82757566173059 -3 -2 0
6922 2308 1 0.7 14.025216853048093 6.916351598896881 74.78288213763592 -3 -2 0
2213 738 2 -0.35 12.114041499993519 2.331770397810993 75.97295129411691 0 1 0
3503 1168 2 -0.35 10.063357437309522 6.122532982010016 78.68825498451851 0 1 0
3688 1230 1 0.7 13.265496359860478 2.1905621547076146 79.75606535810628 0 0 0
3689 1230 2 -0.35 12.468764553596195 2.4862524748702133 80.54042307918655 0 0 0
3690 1230 2 -0.35 14.026078012576129 1.8019795942861823 79.00865972061796 0 0 0
6906 2302 2 -0.35 9.857641833368547 6.0485339845761645 75.33536864538355 6 4 0
5415 1805 2 -0.35 18.516010676587896 4.630117733399267 81.01776780931927 0 1 0
5413 1805 1 0.7 19.028445330646928 5.2696966858858865 81.86262475357206 0 1 0
5746 1916 1 0.7 16.132593585912836 0.2007384564542339 81.60225351609478 0 1 0
1907 636 2 -0.35 14.940497440265295 8.002824085609104 82.67368664297908 0 1 0
1906 636 1 0.7 15.641569581611883 8.523350463339801 83.42540206852048 0 1 0
3469 1157 1 0.7 15.897147192276124 6.001988567499426 79.9255439933535 0 0 0
3471 1157 2 -0.35 16.7120267290901 6.775069931973374 80.18873552452453 0 0 0
3470 1157 2 -0.35 14.996186129434916 5.303777272695643 79.6082011573946 0 0 0
5645 1882 2 -0.35 12.859033637907647 8.773170280149515 78.40101901244965 0 1 0
3670 1224 1 0.7 11.751105542916711 8.062361732139978 82.06917982471147 0 0 0
5644 1882 1 0.7 13.986965962586808 8.660180989195219 78.32445439982287 0 1 0
2214 738 2 -0.35 13.361454315589253 2.7252718416316606 74.02086970593577 0 1 0
2212 738 1 0.7 12.77935255576649 2.5059644367871714 75.0250943260813 0 1 0
443 148 2 -0.35 0.23328431131454813 13.531114841327998 79.86029318900911 0 0 0
1947 649 2 -0.35 18.138873465773994 9.051794770807511 81.5674388911299 0 1 0
3672 1224 2 -0.35 11.753963465397 8.692445842118627 83.02147254471821 0 0 0
3671 1224 2 -0.35 11.804481348491915 7.375089912777221 81.14960721032591 0 0 0
5646 1882 2 -0.35 15.13716378028818 8.5428541869429 78.33106879468168 0 1 0
5414 1805 2 -0.35 19.437923733298547 5.96884311723244 82.68610306859047 0 1 0
1846 616 1 0.7 0.6797041565552917 9.963254019043005 77.07022484186521 1 1 0
291 97 2 -0.35 3.9562088696305397 18.213814794269922 72.43476663502975 0 0 0
1847 616 2 -0.35 0.5053142262210689 10.85259642377524 77.74630821929803 1 1 0
1848 616 2 -0.35 0.7883331669959724 9.082541848866768 76.35115090944363 1 1 0
203 68 2 -0.35 7.045770922977409 11.514621781423367 90.89396479761065 0 0 0
452 151 2 -0.35 7.236622291684556 12.477880011790901 77.00411736931629 -1 0 0
451 151 1 0.7 7.411087413481926 12.666090347156707 78.13808108056594 -1 0 0
453 151 2 -0.35 7.64170751977908 12.879268474437133 79.26295992348017 -1 0 0
1834 612 1 0.7 2.8551755101264047 11.859692543216331 75.63993082391967 0 1 0
7046 2349 2 -0.35 8.24316020604326 14.875050546695137 75.12951765869808 1 -1 1
7045 2349 1 0.7 7.238581081134776 14.786908231715243 74.5788350592152 1 -1 1
5452 1818 1 0.7 1.4514662382836687 16.63093053062312 78.82356827712034 1 0 0
5453 1818 2 -0.35 2.370489382143852 16.226078196500065 78.24875800659758 1 0 0
139 47 1 0.7 4.2052910412841 12.293910824310899 80.01271963661921 0 0 0
140 47 2 -0.35 3.746131951782396 12.006075573469502 78.97395717310499 0 0 0
7047 2349 2 -0.35 6.176424467910003 14.802451547518977 74.11949006259532 1 -1 1
313 105 1 0.7 4.571787167974556 16.107860417027446 76.4600786367789 0 0 0
315 105 2 -0.35 4.035937683100164 16.874374044174687 75.79111857425673 0 0 0
314 105 2 -0.35 4.98332964366044 15.194901310328977 77.0767210089065 0 0 0
1836 612 2 -0.35 2.489701490408475 12.98089079566967 75.6696909351258 0 1 0
3678 1226 2 -0.35 9.179983874476909 9.874247770028305 81.67171765183252 0 0 0
1835 612 2 -0.35 3.17459766219998 10.724216545722529 75.67029560211552 0 1 0
141 47 2 -0.35 4.704207071781531 12.52316982923581 81.06018377417354 0 0 0
410 137 2 -0.35 19.164838242756392 11.538697531247626 73.22129940240697 -1 0 0
474 158 2 -0.35 16.19566789366654 13.639263199249216 85.38326637348663 0 0 0
5291 1764 2 -0.35 0.26614773469568875 16.0996979512675 74.3703903704974 1 0 0
5290 1764 1 0.7 1.0602423204337943 15.566616500893344 73.72728964695278 1 0 0
5292 1764 2 -0.35 1.757206323439466 14.9253670510305 73.08916479777305 1 0 0
163 55 1 0.7 0.510816686124824 15.941320387384932 89.41884495221076 0 0 0
3740 1247 2 -0.35 19.54158886375299 3.7567296011782574 88.7161480513117 0 0 0
3131 1044 2 -0.35 9.313179725381172 10.052044492904153 78.0731742169769 1 2 1
5399 1800 2 -0.35 8.44649685754966 17.4763212917492 79.52751646299016 0 0 0
5398 1800 1 0.7 8.236893419553653 16.694591888360012 78.70323385872078 0 0 0
5400 1800 2 -0.35 7.96608090765782 15.864140063950202 77.92432602512929 0 0 0
202 68 1 0.7 7.490821246650869 12.283478582409042 91.64829037994934 0 0 0
61 21 1 0.7 4.3499983335839225 15.957111097221564 80.5571560742894 0 0 0
62 21 2 -0.35 3.240284853316182 16.02954873030242 80.94665720327501 0 0 0
468 156 2 -0.35 9.188431182419897 15.130219726666 82.31043810091865 0 0 0
466 156 1 0.7 9.702214206641582 14.32912113513323 81.5810623112003 0 0 0
467 156 2 -0.35 10.189456965279982 13.494336313915236 80.94204146488073 0 0 0
63 21 2 -0.35 5.465811449480475 15.949886684661143 80.21663037453004 0 0 0
80 27 2 -0.35 15.021431694219647 18.90705303088204 80.06809721058102 0 0 0
3753 1251 2 -0.35 10.80696071657114 11.143110827863108 74.5478506715814 0 0 0
19 7 1 0.7 11.854435905258416 17.36246343303579 80.63515900922916 0 0 0
3687 1229 2 -0.35 17.971742219580683 16.809208486669693 82.25614581951062 0 0 0
1945 649 1 0.7 17.44348346298801 9.792384630175249 81.02246132918611 0 1 0
1946 649 2 -0.35 16.849259576240396 10.646127969174993 80.48366607459349 0 1 0
3130 1044 1 0.7 10.221603246627689 10.395671086591028 78.67919969026717 1 2 1
3132 1044 2 -0.35 11.165798333882504 10.769444659573288 79.22900043836184 1 2 1
3752 1251 2 -0.35 12.13967281776001 9.50471272371283 75.4960601999446 0 0 0
3713 1238 2 -0.35 12.576463422436737 15.053635829391121 77.47290334959663 0 0 0
3751 1251 1 0.7 11.447879294459945 10.306254925582834 75.01570077075844 0 0 0
3714 1238 2 -0.35 12.339059134149377 13.138496709847377 78.78291752431998 0 0 0
3712 1238 1 0.7 12.497891474212679 14.118377854735924 78.18682768078847 0 0 0
165 55 2 -0.35 0.23184643539672503 14.830450980606923 89.61418061402966 0 0 0
7002 2334 2 -0.35 17.361128659734298 13.791057396406528 81.17593353802386 -6 -6 1
7001 2334 2 -0.35 15.16638128814676 14.33423819053148 80.63462739478288 -6 -6 1
7000 2334 1 0.7 16.25480105180964 14.008458883874571 80.87974938450253 -6 -6 1
3686 1229 2 -0.35 18.284110964029818 17.693364346729126 80.16258215748749 0 0 0
20 7 2 -0.35 11.562075827144493 16.7539104015948 79.67340888074978 0 0 0
3685 1229 1 0.7 18.035182793813963 17.24140127359192 81.2007250836067 0 0 0
408 136 2 -0.35 4.847862738504099 18.744915960101565 82.55549320861118 0 0 0
420 140 2 -0.35 8.242952334677081 8.443056317177415 91.37472589177123 0 0 0
102 34 2 -0.35 12.026731656364937 11.77554122782343 82.57282841691743 0 0 0
21 7 2 -0.35 12.085115817509564 18.038217381853983 81.57465263717746 0 0 0
2164 722 1 0.7 9.06153884710388 1.9655833571417243 83.7707739314197 0 1 0
5619 1873 2 -0.35 3.1977882373972815 3.148846928210432 90.22663994134214 1 1 0
1955 652 2 -0.35 14.271376433241016 18.746224919468926 84.96923333392883 0 1 0
2014 672 1 0.7 0.9838733066355005 3.1186115942694865 83.47134349877537 0 1 0
5450 1817 2 -0.35 1.0603626293925013 8.109089880324385 84.7729158539505 1 1 0
2016 672 2 -0.35 0.9032463259443604 2.6563857245960043 84.5402052388746 0 1 0
5618 1873 2 -0.35 0.9779963548021658 3.7693916084842334 90.14206217884988 1 1 0
5449 1817 1 0.7 0.3873665048250096 7.140439671827771 84.76661546274683 1 1 0
2165 722 2 -0.35 8.300260258550194 2.8023007504114923 83.49087538019305 0 1 0
5395 1799 1 0.7 11.772728426851609 5.80069757491711 91.2370708686354 1 1 0
5722 1908 1 0.7 8.726392162365219 5.874727470444865 82.29844814585668 1 1 0
368 123 2 -0.35 7.527772637681748 3.4095262388358414 88.13284171408431 0 0 0
367 123 1 0.7 7.89690513534067 4.492502390128332 88.2480845308374 0 0 0
3456 1152 2 -0.35 6.043887758826565 1.467192417277487 90.93337780301606 1 0 0
2135 712 2 -0.35 0.2771968948288135 3.893173815408288 87.1749344131918 0 1 0
2134 712 1 0.7 1.2824888122626297 4.302081664088457 86.77330833644675 0 1 0
1997 666 2 -0.35 5.629356057161336 1.68270720987719 85.36149545721777 0 1 0
3848 1283 2 -0.35 9.472239584211508 8.894029211655276 87.94517296723585 1 0 0
3659 1220 2 -0.35 2.120370169144409 0.45943785238331675 89.02140512736534 1 0 0
3658 1220 1 0.7 2.3710237090609363 1.0783221112381938 88.0533892920891 1 0 0
225 75 2 -0.35 5.280618246470365 6.039955329136425 88.94762218168276 0 0 0
3660 1220 2 -0.35 2.736727916251424 1.6782602549861492 87.12212656031818 1 0 0
497 166 2 -0.35 4.580283393545325 6.899756352173951 86.21608052008585 0 0 0
496 166 1 0.7 5.075812590556605 5.9260340018018 85.83247963613043 0 0 0
2136 712 2 -0.35 2.2213380999771832 4.85383588137697 86.38101964454984 0 1 0
1998 666 2 -0.35 3.935061839808304 1.4991617002339443 83.87809799974839 0 1 0
3454 1152 1 0.7 5.743664434354655 0.6885118648203399 90.13310669332546 1 0 0
1996 666 1 0.7 4.757827014965541 1.5827299659685614 84.64273872848229 0 1 0
498 166 2 -0.35 5.702022222822272 5.053520394597387 85.36478265465254 0 0 0
369 123 2 -0.35 8.363235628124702 5.551055841082117 88.25827281758382 0 0 0
5723 1908 2 -0.35 9.73531271151586 5.909758340411915 82.8609690907339 1 1 0
223 75 1 0.7 4.519378268555679 6.885249927543437 89.16570959897918 0 0 0
224 75 2 -0.35 3.724865857362354 7.707007073393503 89.31102220601764 0 0 0
5373 1791 2 -0.35 6.327536769373325 9.514074745346853 88.29433268991268 0 1 0
5617 1873 1 0.7 2.1106391633938184 3.4419816492692275 90.15369387620666 1 1 0
260 87 2 -0.35 9.977511023291777 3.8388448799400097 85.84477745001236 0 0 0
2084 695 2 -0.35 0.5879451644725876 18.333233446986995 76.70617505237702 0 0 0
92 31 2 -0.35 0.9885146650647979 6.916664548028515 89.57836767336731 0 0 0
2153 718 2 -0.35 9.620616558146004 1.0409294818686257 90.29582899834334 0 1 0
5454 1818 2 -0.35 0.5058501526907332 16.94638028992323 79.4546800919161 1 0 0
33 11 2 -0.35 16.268718354335356 17.246296828354595 88.61978464485303 0 0 0
228 76 2 -0.35 10.54961214672617 0.4984233499231838 87.4756483879147 0 0 0
5748 1916 2 -0.35 16.712811952160493 0.6668548372114013 82.5144413000925 0 1 0
1908 636 2 -0.35 16.410653543086177 9.022601695362503 84.16311290620064 0 1 0
3847 1283 1 0.7 9.665930888051605 8.30444005522561 86.97072517132828 1 0 0
7 3 1 0.7 19.09682704481964 9.286253760543989 85.68574561863848 0 0 0
538 180 1 0.7 16.857998500057583 1.5265145728297058 85.73150635003702 -1 0 0
9 3 2 -0.35 19.589121086753167 8.33121028364056 85.22125146045002 0 0 0
539 180 2 -0.35 16.042035795046612 2.303006844875863 85.52266830052224 -1 0 0
5519 1840 2 -0.35 12.698105217268463 2.9910757653048363 83.783467896093 0 1 0
5518 1840 1 0.7 13.352653602789822 3.6512930388778586 83.09518042902684 0 1 0
5520 1840 2 -0.35 13.967315549525667 4.345243981898046 82.38659578154429 0 1 0
3849 1283 2 -0.35 9.933188080908693 7.646751804370616 86.02548543771226 1 0 0
509 170 2 -0.35 15.629141264195457 1.6738005096217548 88.36565417345676 0 0 0
473 158 2 -0.35 17.14149320522301 14.27195268451964 87.41057062309439 0 0 0
4638 1546 2 -0.35 18.415540937634397 7.524936485230368 89.01272950217536 0 1 0
4637 1546 2 -0.35 17.38453309851809 6.030201572055947 90.39951357982054 0 1 0
4636 1546 1 0.7 17.919340426932052 6.781084953042158 89.73099818034575 0 1 0
259 87 1 0.7 11.04734705966689 3.9806510716233214 86.24946487927272 0 0 0
261 87 2 -0.35 12.059567884176722 4.1301863194637045 86.69419363599789 0 0 0
338 113 2 -0.35 14.880955684969583 5.126122704646082 87.872887695516 0 0 0
337 113 1 0.7 14.19459441995947 5.764047380645717 88.55100656553441 0 0 0
339 113 2 -0.35 13.513995881470196 6.322489291323212 89.29147254470554 0 0 0
2154 718 2 -0.35 10.344835165128007 3.1076133322572375 89.55073887723152 0 1 0
2152 718 1 0.7 10.08181280529196 2.0756132259603057 89.97063698686863 0 1 0
508 170 1 0.7 14.481444072426957 1.5349333238270713 88.40923670010456 0 0 0
417 139 2 -0.35 18.038920425295768 4.707050297134058 84.78801115361836 0 0 0
415 139 1 0.7 17.905715181919508 5.455726555346912 85.64292356114599 0 0 0
416 139 2 -0.35 17.61558525168937 6.211623973383319 86.48731393853468 0 0 0
510 170 2 -0.35 13.356354866550749 1.5224604912487105 88.43767222646589 0 0 0
10 4 1 0.7 12.699772300974903 9.257756414696479 90.54081901034121 0 0 0
364 122 1 0.7 12.747962764871204 6.7103934766584175 85.36045329618584 0 0 0
12 4 2 -0.35 13.012412286158064 9.731632551174641 89.56232350868171 0 0 0
366 122 2 -0.35 12.338479284147823 6.0371628742359595 84.50980963842747 0 0 0
365 122 2 -0.35 13.184402563825337 7.344537557982571 86.22653989008336 0 0 0
2334 778 2 -0.35 15.52452057116418 8.449529898435657 90.18775001456292 0 1 0
2332 778 1 0.7 16.269340846636002 9.291157706611811 90.3916489041004 0 1 0
540 180 2 -0.35 17.68380848945901 0.7584204966189455 85.92463767406342 -1 0 0
226 76 1 0.7 11.405232295424785 0.38842495094272894 86.71709138393064 0 0 0
5298 1766 2 -0.35 13.578784643236004 1.3596695323252121 91.35501466027604 0 1 0
5397 1799 2 -0.35 10.898277253606764 6.331113172218076 90.6718009155384 1 1 0
1 1 1 0.7 3.014466717426232 14.041380405557176 91.01448565624759 0 0 0
437 146 2 -0.35 0.9460519486630704 14.554483488517825 86.08670434039928 0 0 0
3676 1226 1 0.7 9.02812610781144 10.482293816022663 82.67086283464317 0 0 0
293 98 2 -0.35 9.321849364411303 14.08413932763973 87.46079515752334 0 0 0
3677 1226 2 -0.35 8.996834360177521 11.054089102672185 83.68611081122225 0 0 0
3 1 2 -0.35 3.3701495205768266 14.639434824844042 90.06764370012789 0 0 0
3477 1159 2 -0.35 9.206975158761455 18.37545555439369 83.92623378832779 1 0 0
164 55 2 -0.35 1.012360364568201 16.98043098936062 89.29490762073125 0 0 0
469 157 1 0.7 9.469017398592113 17.90039315378456 87.39044807909596 0 0 0
2099 700 2 -0.35 1.6861891487441842 12.817939618017851 82.66393322926986 0 1 0
327 109 2 -0.35 6.206344211855086 9.600708461835776 83.62154417671452 0 0 0
325 109 1 0.7 5.872251449119509 10.737808407424996 83.71280617537323 0 0 0
91 31 1 0.7 0.0952249369541446 7.234864450080458 90.26875943590775 0 0 0
436 146 1 0.7 2.076938078565848 14.616841620239038 86.4050991976035 0 0 0
326 109 2 -0.35 5.507344878036977 11.834742353700733 83.89269893652077 0 0 0
2227 743 1 0.7 5.050499588527871 18.66663944472148 88.79487281274045 0 0 0
2098 700 1 0.7 2.0879611966565896 12.082971116147228 83.49737133320421 0 1 0
5371 1791 1 0.7 6.891110356981379 10.354730762325106 87.71389090917538 0 1 0
2229 743 2 -0.35 4.673771538978556 18.160785273738533 87.83406058252142 0 0 0
3520 1174 1 0.7 0.804409904432748 16.841793926792008 83.48897581021924 1 0 0
3522 1174 2 -0.35 1.6386481977313245 16.56152360112921 84.2949855839052 1 0 0
3509 1170 2 -0.35 5.599796878987039 16.067926873840275 84.6215121144271 1 0 0
3508 1170 1 0.7 5.989351888488307 15.674873594273631 85.64945163635609 1 0 0
294 98 2 -0.35 8.862145333197397 14.284653196840244 89.72631312375992 0 0 0
3510 1170 2 -0.35 6.349227236315035 15.246393587948763 86.66243393986457 1 0 0
2100 700 2 -0.35 2.552478571139111 11.364213992380023 84.29410173574136 0 1 0
292 98 1 0.7 9.003271377879532 14.164863548937142 88.56985962549646 0 0 0
108 36 2 -0.35 3.8372233338450417 11.227463893290526 90.27116432505258 0 0 0
107 36 2 -0.35 3.716767159314523 11.869679173686167 88.04865137005272 0 0 0
5372 1791 2 -0.35 7.355888169464193 11.179850395328089 87.04513227109865 0 1 0
1759 587 1 0.7 0.12385025444972322 0.08397985155759433 91.4815031963363 0 1 0
106 36 1 0.7 3.737236372540803 11.52203799855142 89.16207045810937 0 0 0
3543 1181 2 -0.35 19.046614867047293 18.19927572109886 90.08386187952355 0 0 0
6970 2324 1 0.7 18.70395569182001 7.113357140360419 70.85932534618487 0 1 0
470 157 2 -0.35 8.722520848779656 17.07566811570258 87.75064050790144 0 0 0
7028 2343 2 -0.35 0.820836619193358 10.493798672893895 25.98694878243859 2 -4 1
438 146 2 -0.35 3.1884033788429207 14.664520425855951 86.7674980684658 0 0 0
2083 695 1 0.7 1.5911841028215008 18.899722917025453 76.61779558386208 0 0 0
507 169 2 -0.35 3.741802619375065 18.7672861587952 79.45381077183049 0 0 0
191 64 2 -0.35 1.498771978607606 16.913630166596533 71.04785860734026 0 0 0
457 153 1 0.7 16.73065000810997 14.290596380554543 90.61013251937514 0 0 0
6971 2324 2 -0.35 17.733477081755808 7.779993785571638 71.02843855508577 0 1 0
458 153 2 -0.35 17.821822688788924 14.200145601402262 90.96789255490036 0 0 0
209 70 2 -0.35 18.12611778532225 11.188768627177728 83.47916386296278 0 0 0
2333 778 2 -0.35 16.938248474691733 10.218441669789378 90.5338011051391 0 1 0
8 3 2 -0.35 18.613124164320265 10.201513565235292 86.17626099046184 0 0 0
441 147 2 -0.35 12.474798481086909 13.215703934432819 89.12661026571486 0 0 0
333 111 2 -0.35 14.664348135311773 11.392487569502649 87.59311993288854 0 0 0
524 175 2 -0.35 13.731269548698037 16.953671023032523 89.99200401133008 0 0 0
1921 641 1 0.7 12.12475812511686 15.75679938305677 83.98227944171023 0 1 0
459 153 2 -0.35 15.633000380976254 14.39439631416173 90.18068344798785 0 0 0
210 70 2 -0.35 19.14664502811401 13.008509778390398 84.47080329730092 0 0 0
1923 641 2 -0.35 11.804512389500534 16.17454781905646 85.00321347766149 0 1 0
3464 1155 2 -0.35 10.597468268513698 16.569746251021563 90.75561664920637 1 0 0
440 147 2 -0.35 13.589335391880667 12.256218366866797 90.91303101475344 0 0 0
2174 725 2 -0.35 11.738819848753275 13.052512518733137 85.47292765334267 0 1 0
439 147 1 0.7 13.047166813605 12.742021798621161 89.99669174776629 0 0 0
208 70 1 0.7 18.60993785179877 12.112871795581814 83.9388146454291 0 0 0
471 157 2 -0.35 10.169473621003615 18.74387538869481 87.0119513510596 0 0 0
472 158 1 0.7 16.62303447399713 14.005494711944193 86.40490939626686 0 0 0
2173 725 1 0.7 11.549753636366058 12.003553547647465 85.93978706410347 0 1 0
101 34 2 -0.35 13.642475016169492 10.677596716487606 81.30150900330648 0 0 0
523 175 1 0.7 13.276422023582047 17.064078809633738 88.91650333996981 0 0 0
32 11 2 -0.35 17.652199395987136 18.366535945609492 87.14577669077849 0 0 0
331 111 1 0.7 15.121006354135655 10.335707766875036 87.38767654554853 0 0 0
525 175 2 -0.35 12.905987152239305 17.243762340385903 87.84375707953177 0 0 0
31 11 1 0.7 16.98569267005829 17.795706249898775 87.89440834320392 0 0 0
1922 641 2 -0.35 12.402713225885302 15.242150410489558 82.98320265179106 0 1 0
332 111 2 -0.35 15.586742549751724 9.307748079026885 87.10564414715381 0 0 0
2175 725 2 -0.35 11.28530181460295 10.933387619983144 86.32072648529129 0 1 0
100 34 1 0.7 12.861517744787525 11.289549757724641 81.90559832278093 0 0 0
7027 2343 1 0.7 1.7675940406755783 11.158769358742276 26.165063294602817 2 -4 1
2228 743 2 -0.35 5.378645764449672 19.104548866047725 89.80664414045197 0 0 0
418 140 1 0.7 7.8377173658599055 7.360923718115792 91.48422339631443 0 0 0
3748 1250 1 0.7 1.370617279018832 5.777820030177691 93.63232004793116 1 0 0
5674 1892 1 0.7 3.070869758935979 1.877155158323753 93.70425227630831 1 1 0
5676 1892 2 -0.35 3.1245586548452926 3.022669112907807 93.58247800516553 1 1 0
5675 1892 2 -0.35 3.049874420488805 0.7365613872502462 93.71705589917477 1 1 0
899 300 2 -0.35 4.9949010870305415 6.256356008596361 94.3922888541856 0 0 0
898 300 1 0.7 6.096885330710451 6.185011639588641 94.74506147858023 0 0 0
900 300 2 -0.35 7.221066859030109 6.119709811966342 95.08818647240425 0 0 0
3749 1250 2 -0.35 0.9187343338462556 5.52001404093674 94.67328534758094 1 0 0
3750 1250 2 -0.35 1.8495552504041108 5.994875575384885 92.56444056935392 1 0 0
2025 675 2 -0.35 3.168190601715219 2.3734997164827916 97.91980498083323 0 1 0
2023 675 1 0.7 3.5183792355143217 3.30742338303609 97.36570214859088 0 1 0
2024 675 2 -0.35 3.8737660346549925 4.228785059936505 96.75560759737748 0 1 0
1931 644 2 -0.35 13.101616285648191 14.942448551099076 92.27815524268829 0 0 0
5253 1751 2 -0.35 8.817870430430064 3.2743322361905802 98.46107069921538 1 1 0
2072 691 2 -0.35 5.77597580322551 2.6927901645866257 101.48951042960445 0 1 0
5987 1996 2 -0.35 3.676698412639051 7.3261611575462044 98.66686508803502 1 1 0
50 17 2 -0.35 7.147751852675736 8.422231686356577 97.99484587180187 0 0 0
5986 1996 1 0.7 3.821213355348431 7.7652241826043635 97.61635363723829 1 1 0
14 5 2 -0.35 6.913884570029167 10.700708166675943 95.44697293649521 0 0 0
49 17 1 0.7 8.142524396028097 7.869629886512869 98.27604137248886 0 0 0
3997 1333 1 0.7 0.22955394713514166 8.702029315585685 100.30467648323491 1 0 0
5251 1751 1 0.7 7.841013274147466 3.8085878709120857 98.76671822823334 1 1 0
3998 1333 2 -0.35 0.803941158199949 8.385909747224733 99.35808329306995 1 0 0
1786 596 1 0.7 7.302608604910603 3.5421771604150187 92.66760487392077 0 1 0
5988 1996 2 -0.35 4.037757202305414 8.24207822917797 96.56225107229967 1 1 0
1788 596 2 -0.35 8.30383261678377 3.438368306234763 92.08032208675905 0 1 0
5252 1751 2 -0.35 6.800790257905394 4.300675351687007 98.98851056966791 1 1 0
1896 632 2 -0.35 8.937538133338434 3.2037462704823567 95.19928635679557 0 1 0
1980 660 2 -0.35 9.840929708017823 0.07837640067406011 96.91293819497781 0 1 0
51 17 2 -0.35 9.079232760012928 7.250818978524195 98.5498810266698 0 0 0
3813 1271 2 -0.35 16.97106197578462 18.05143189682209 94.16019551139756 0 0 0
309 103 2 -0.35 12.219316782908148 19.039390579415514 92.37519403410523 0 0 0
390 130 2 -0.35 2.905252564528663 8.958264817859389 92.93007116923829 0 0 0
3812 1271 2 -0.35 18.19490193558068 16.086879560187395 94.19706703512287 0 0 0
1787 596 2 -0.35 6.294536521841753 3.6843911997867007 93.21541878491168 0 1 0
388 130 1 0.7 3.9328282417405704 8.660289618911218 92.44925879242861 0 0 0
400 134 1 0.7 15.879929046724806 13.715003405955901 101.7977189653648 0 0 0
2105 702 2 -0.35 6.8310898418666675 16.629560805939605 92.65559112014336 0 1 0
1960 654 1 0.7 8.213246257593863 7.373703343164896 102.16910039454882 0 1 0
657 219 2 -0.35 2.2076944296598358 6.887451532346676 101.63731024403914 1 0 0
3551 1184 2 -0.35 2.30646494320158 3.4730752579561353 100.5527274203754 1 0 0
3862 1288 1 0.7 0.08405890476894802 5.5972774595359 97.73025194442289 1 0 0
3550 1184 1 0.7 1.2418395232277106 3.9640916934993498 100.57036680593342 1 0 0
3864 1288 2 -0.35 1.039288068320559 5.019702695827854 98.07135496721764 1 0 0
3725 1242 2 -0.35 0.32545305389365536 8.21042774486105 93.59823755483303 1 0 0
2159 720 2 -0.35 9.610868319511184 9.334391048797649 96.34364370353711 0 1 0
2158 720 1 0.7 9.762973300997293 8.889144972831112 95.29299446979319 0 1 0
3552 1184 2 -0.35 0.12398315940040495 4.264655254916361 100.67232434625781 1 0 0
2000 667 2 -0.35 5.497989461020866 0.6394527001023358 96.05784419635202 0 1 0
340 114 1 0.7 17.09349358885442 11.90454122768446 93.49721159500102 0 0 0
237 79 2 -0.35 10.437528184895958 9.150071166324297 100.98795705508905 0 0 0
1894 632 1 0.7 9.954172635792725 3.655396704686922 95.49212660608853 0 1 0
2104 702 1 0.7 6.21126184725667 15.659912554319966 92.38462514963031 0 1 0
5215 1739 1 0.7 19.23764280214002 1.697857123486639 92.61802823662548 0 1 0
1192 398 1 0.7 19.276160324803673 0.8637278572530428 101.04459964573938 0 1 0
2160 720 2 -0.35 9.853974985443148 8.509581975083272 94.20916680307108 0 1 0
2262 754 2 -0.35 11.373436790817031 3.9126435360298255 99.78966275735708 0 1 0
2261 754 2 -0.35 11.782442859554855 1.6688754995753152 100.06480750796425 0 1 0
1900 634 1 0.7 16.125753852298153 0.22692027675503906 98.4024279507586 0 1 0
5255 1752 2 -0.35 13.024043474840123 2.4976912337186596 97.09822820147048 0 1 0
1895 632 2 -0.35 10.91186369388698 4.18557474422488 95.89829172553665 0 1 0
5254 1752 1 0.7 13.701793616564334 3.0824481933795194 96.37782819362671 0 1 0
552 184 2 -0.35 14.783315831512262 4.350954730016038 100.05403121046913 0 0 0
1885 629 1 0.7 18.179324206262418 14.05966562890156 97.99674730586058 0 1 0
148 50 1 0.7 12.53336579260477 9.852576546346876 97.47669319702621 0 0 0
2232 744 2 -0.35 13.569952217706689 7.314223968742715 94.40326627266737 0 1 0
2231 744 2 -0.35 15.089922794800295 8.53323995800378 93.12222115663441 0 1 0
2648 883 2 -0.35 15.552167415359781 8.79247546295948 99.85670205960389 0 1 0
171 57 2 -0.35 18.5568688318391 8.970395628040349 101.19205891934389 0 0 0
2647 883 1 0.7 15.013243201422801 8.92512077436737 100.87199971993844 0 1 0
2230 744 1 0.7 14.26138444164897 7.940628604918753 93.70503454549939 0 1 0