LAMMPS (29 Aug 2024 - Update 1)
  using 1 OpenMP thread(s) per MPI task
using multi-threaded neighbor list subroutines
Created orthogonal box = (0 0 0) to (40 40 240)
  2 by 2 by 7 MPI processor grid
Read molecule template co2mol:
# CO2 molecule file. TraPPE-Flex model.
  1 molecules
  0 fragments
  3 atoms with max type 2
  2 bonds with max type 1
  1 angles with max type 1
  0 dihedrals with max type 0
  0 impropers with max type 0
Molecule file loaded successfully
Created 6894 atoms
  using lattice units in orthogonal box = (0 0 0) to (40 40 240)
  create_atoms CPU = 0.234 seconds
Created 78 atoms
  using lattice units in orthogonal box = (0 0 0) to (40 40 240)
  create_atoms CPU = 0.009 seconds
Created 78 atoms
  using lattice units in orthogonal box = (0 0 0) to (40 40 240)
  create_atoms CPU = 0.009 seconds
Setting atom values ...
  2350 settings made for charge
Setting atom values ...
  4700 settings made for charge
lz=240
2350 atoms in group car
4700 atoms in group oxy
Balancing ...
PPPM initialization ...
  using 12-bit tables for long-range coulomb (src/kspace.cpp:342)
  G vector (1/distance) = 0.20169663
  grid = 24 24 80
  stencil order = 5
  estimated absolute RMS force accuracy = 0.00286774
  estimated relative force accuracy = 8.6361139e-06
  using single precision FFTW3
  3d grid and FFT values/proc = 6498 1728
Generated 1 of 1 mixed pair_coeff terms from arithmetic mixing rule
Last active /omp style is kspace_style pppm/omp
Neighbor list info ...
  update: every = 1 steps, delay = 0 steps, check = yes
  max neighbors/atom: 2000, page size: 100000
  master list distance cutoff = 17
  ghost atom cutoff = 17
  binsize = 8.5, bins = 5 5 29
  1 neighbor lists, perpetual/occasional/extra = 1 0 0
  (1) pair lj/cut/coul/long/omp, perpetual
      attributes: half, newton on, omp
      pair build: half/bin/newton/omp
      stencil: half/bin/3d
      bin: standard
 rebalancing time: 0.011 seconds
  iteration count = 14
  initial/final maximal load/proc = 687 298
  initial/final imbalance factor  = 2.7285106 1.1835461
  x cuts: 0 0.46875 1
  y cuts: 0 0.46875 1
  z cuts: 0 0.36160714 0.41741071 0.47098214 0.52455357 0.58258929 0.63839286 1
PPPM initialization ...
  using 12-bit tables for long-range coulomb (src/kspace.cpp:342)
  G vector (1/distance) = 0.20169663
  grid = 24 24 80
  stencil order = 5
  estimated absolute RMS force accuracy = 0.00286774
  estimated relative force accuracy = 8.6361139e-06
  using single precision FFTW3
  3d grid and FFT values/proc = 14000 4901
Generated 1 of 1 mixed pair_coeff terms from arithmetic mixing rule
Last active /omp style is kspace_style pppm/omp
Setting up cg style minimization ...
  Unit style    : real
  Current step  : 0
Per MPI rank memory allocation (min/avg/max) = 8.74 | 9.175 | 9.553 Mbytes
   Step          Temp          E_pair         E_mol          TotEng         Press     
         0   0              49336.872      7.9026918e-12  49336.872      43177.231    
      2303   0             -11671.855      22.200108     -11649.655     -445.67277    
Loop time of 20.9239 on 28 procs for 2303 steps with 7050 atoms

99.4% CPU use with 28 MPI tasks x 1 OpenMP threads

Minimization stats:
  Stopping criterion = energy tolerance
  Energy initial, next-to-last, final = 
      49336.8715518035  -11649.6437336223    -11649.65463544
  Force two-norm initial, final = 12256.268 9.663013
  Force max component initial, final = 805.65186 1.2858854
  Final line search alpha, max atom move = 0.056836053 0.073084648
  Iterations, force evaluations = 2303 4533

MPI task timing breakdown:
Section |  min time  |  avg time  |  max time  |%varavg| %total
---------------------------------------------------------------
Pair    | 3.4665     | 12.061     | 17.325     | 113.9 | 57.64
Bond    | 0.033698   | 0.043186   | 0.052735   |   2.5 |  0.21
Kspace  | 2.5183     | 7.7917     | 16.381     | 142.0 | 37.24
Neigh   | 0.11794    | 0.11866    | 0.11953    |   0.1 |  0.57
Comm    | 0.58901    | 0.70793    | 0.78656    |   7.1 |  3.38
Output  | 0          | 0          | 0          |   0.0 |  0.00
Modify  | 0.017258   | 0.023697   | 0.03459    |   3.0 |  0.11
Other   |            | 0.1777     |            |       |  0.85

Nlocal:        251.786 ave         361 max         109 min
Histogram: 3 5 0 1 1 1 4 2 9 2
Nghost:        5837.46 ave        7853 max        3591 min
Histogram: 7 1 0 1 5 2 0 3 5 4
Neighs:         131105 ave      214549 max       15405 min
Histogram: 4 0 4 0 1 3 1 7 4 4

Total # of neighbors = 3670931
Ave neighs/atom = 520.69943
Ave special neighs/atom = 2
Neighbor list builds = 25
Dangerous builds = 0
System init for write_data ...
PPPM initialization ...
  using 12-bit tables for long-range coulomb (src/kspace.cpp:342)
  G vector (1/distance) = 0.20169663
  grid = 24 24 80
  stencil order = 5
  estimated absolute RMS force accuracy = 0.00286774
  estimated relative force accuracy = 8.6361139e-06
  using single precision FFTW3
  3d grid and FFT values/proc = 14000 4901
Generated 1 of 1 mixed pair_coeff terms from arithmetic mixing rule
Last active /omp style is kspace_style pppm/omp
#Step Pxx Pyy Pzz
#Step temp press ke pe etotal ecouple econserve
#Step px py pz COM_vx COM_vy COM_vz
PPPM initialization ...
  using 12-bit tables for long-range coulomb (src/kspace.cpp:342)
  G vector (1/distance) = 0.20169663
  grid = 24 24 80
  stencil order = 5
  estimated absolute RMS force accuracy = 0.00286774
  estimated relative force accuracy = 8.6361139e-06
  using single precision FFTW3
  3d grid and FFT values/proc = 14000 4901
Generated 1 of 1 mixed pair_coeff terms from arithmetic mixing rule
Last active /omp style is kspace_style pppm/omp
Setting up Verlet run ...
  Unit style    : real
  Current step  : 0
  Time step     : 0.5
Per MPI rank memory allocation (min/avg/max) = 8.227 | 8.374 | 8.725 Mbytes
   Step         TotEng         Press           Temp            Dt      
         0  -7027.074       104.61026      220            0.5          
      1000  -2998.1956      989.87644      216.09437      0.5          
      2000  -2404.8689      1170.809       200.22757      0.5          
      3000  -1949.3399     -262.92612      211.93437      0.5          
      4000  -1784.6996     -46.703926      225.42981      0.5          
      5000  -1711.4743     -52.108912      225.097        0.5          
      6000  -1487.7723     -53.740624      216.98609      0.5          
      7000  -1482.5058      70.010514      211.84016      0.5          
      8000  -1353.3526     -352.38723      216.9085       0.5          
      9000  -1152.5379     -437.48562      222.37147      0.5          
     10000  -944.24689     -130.8499       219.59163      0.5          
     11000  -758.37245     -165.94477      219.80096      0.5          
     12000  -779.78067     -196.88306      219.2684       0.5          
     13000  -548.38837      100.49885      221.14643      0.5          
     14000  -501.44537     -166.49603      221.106        0.5          
     15000  -444.84839     -95.411887      220.98714      0.5          
     16000  -453.62182      10.183294      219.84367      0.5          
     17000  -446.20066     -475.76286      218.94949      0.5          
     18000  -501.74948     -198.22236      219.53791      0.5          
     19000  -480.78085      64.795258      217.30024      0.5          
     20000  -495.78087     -45.157161      222.85328      0.5          
     21000  -635.80542     -259.68788      215.96136      0.5          
     22000  -640.31517      16.69751       217.61329      0.5          
     23000  -640.32896      208.58485      219.84019      0.5          
     24000  -637.73537     -200.68709      217.54098      0.5          
     25000  -514.57319     -85.866702      222.481        0.5          
     26000  -530.93046     -273.94233      219.20084      0.5          
     27000  -562.07459      54.457909      220.04137      0.5          
     28000  -646.73882      208.09922      217.8114       0.5          
     29000  -598.40535      116.34734      217.60665      0.5          
     30000  -716.75875     -160.79454      218.73252      0.5          
     31000  -625.38714     -237.11909      222.91497      0.5          
     32000  -776.87375     -248.27498      217.75014      0.5          
     33000  -804.50601      13.538936      219.06928      0.5          
     34000  -672.41719     -1.3398673      224.18193      0.5          
     35000  -836.02971     -148.18957      217.88701      0.5          
     36000  -936.84109     -178.91891      217.29779      0.5          
     37000  -920.34239     -69.017199      218.51097      0.5          
     38000  -774.17826     -27.13708       221.67997      0.5          
     39000  -819.723       -160.44626      219.01829      0.5          
     40000  -914.81777      121.92108      219.56766      0.5          
     41000  -915.34542     -45.17043       219.15075      0.5          
     42000  -878.97841      18.802841      223.17563      0.5          
     43000  -815.05969      277.71189      225.69106      0.5          
     44000  -960.96122     -133.35691      218.31679      0.5          
     45000  -967.21176     -342.764        216.76467      0.5          
     46000  -970.61534      90.909293      222.91296      0.5          
     47000  -1027.2187     -46.285696      221.72944      0.5          
     48000  -1140.1987     -87.612515      220.22733      0.5          
     49000  -1174.7909      329.27636      221.28035      0.5          
     50000  -1095.8967     -181.56141      222.39154      0.5          
     51000  -1292.9552     -12.144825      218.71794      0.5          
     52000  -1272.5366      157.64436      218.98931      0.5          
     53000  -1330.1461      229.78272      220.54485      0.5          
     54000  -1232.9972      275.28115      220.84547      0.5          
     55000  -1446.7476      253.21027      216.71441      0.5          
     56000  -1311.5469      146.98086      217.39875      0.5          
     57000  -1211.3784     -249.81799      219.19928      0.5          
     58000  -1193.8359      176.53756      222.80631      0.5          
     59000  -1224.6622      335.09159      221.05337      0.5          
     60000  -1260.327      -127.62285      215.19996      0.5          
     61000  -1088.2511     -48.334008      220.39303      0.5          
     62000  -1092.0387      34.794312      218.548        0.5          
     63000  -1142.2851     -5.703446       216.62703      0.5          
     64000  -886.82827      7.3360363      223.93536      0.5          
     65000  -993.69921      27.329073      219.19893      0.5          
     66000  -1039.9693     -91.917888      216.24465      0.5          
     67000  -1033.5694     -293.87641      217.48625      0.5          
     68000  -940.34804     -269.65024      217.13777      0.5          
     69000  -815.57843     -26.867538      219.62018      0.5          
     70000  -753.88715     -6.2934717      221.27306      0.5          
     71000  -708.22942      42.141238      224.9848       0.5          
     72000  -811.16738     -121.61323      217.99871      0.5          
     73000  -792.80177     -72.4092        219.55949      0.5          
     74000  -681.26963     -235.7586       221.56352      0.5          
     75000  -821.82156     -37.09723       217.53641      0.5          
     76000  -825.37989      137.17701      217.67976      0.5          
     77000  -836.47462     -299.99271      216.73125      0.5          
     78000  -779.4653      -133.69835      219.05968      0.5          
     79000  -773.00631     -106.69357      221.01511      0.5          
     80000  -837.25563      7.1488725      219.28043      0.5          
     81000  -846.57948      13.674333      218.52319      0.5          
     82000  -787.27981     -30.719007      221.14337      0.5          
     83000  -917.95173     -168.96995      220.63541      0.5          
     84000  -924.06534     -28.67134       219.50537      0.5          
     85000  -910.70695      95.834375      219.96833      0.5          
     86000  -988.19216     -184.60201      216.70154      0.5          
     87000  -910.45435     -59.873129      222.30677      0.5          
     88000  -967.95849      34.60807       222.5394       0.5          
     89000  -1007.972       119.00229      218.58219      0.5          
     90000  -1006.0511     -153.2052       219.66527      0.5          
     91000  -978.65038      63.950739      222.70957      0.5          
     92000  -928.65244      112.49885      222.20207      0.5          
     93000  -1050.1033      260.16401      219.31222      0.5          
     94000  -1056.286      -52.116233      218.33295      0.5          
     95000  -1066.7763     -51.38133       219.35406      0.5          
     96000  -1143.2055      315.74781      219.59076      0.5          
     97000  -1018.8859      326.00274      219.65149      0.5          
     98000  -964.32246     -289.91929      219.35772      0.5          
     99000  -1092.7603      50.745436      218.2282       0.5          
    100000  -1085.3849      211.26089      217.92658      0.5          
    101000  -996.28739     -118.21977      220.74893      0.5          
    102000  -1016.9835      131.94417      218.04757      0.5          
    103000  -883.28284      138.03637      222.60877      0.5          
    104000  -940.64357     -269.42058      220.96752      0.5          
    105000  -916.09226     -175.96098      221.30726      0.5          
    106000  -969.86808      214.59434      217.90864      0.5          
    107000  -924.90355      286.86226      218.76328      0.5          
    108000  -848.99172     -145.60593      221.77932      0.5          
    109000  -915.02198     -207.15508      217.76176      0.5          
    110000  -886.97765     -8.4249433      219.36449      0.5          
    111000  -806.03821     -52.663178      221.41183      0.5          
    112000  -877.38064      36.910711      221.27381      0.5          
    113000  -1028.0214     -147.42223      217.50176      0.5          
    114000  -767.97834     -379.9332       221.72363      0.5          
    115000  -853.27308     -55.756119      219.63618      0.5          
    116000  -841.17103      121.13462      224.80388      0.5          
    117000  -804.50613      242.31617      223.44844      0.5          
    118000  -905.9824      -28.56031       217.68397      0.5          
    119000  -882.83439     -151.67875      219.36632      0.5          
    120000  -788.27582      144.93127      224.30971      0.5          
    121000  -872.75257     -118.45718      222.24859      0.5          
    122000  -958.21429     -50.261037      216.71898      0.5          
    123000  -763.22528      228.8965       224.84134      0.5          
    124000  -867.13628     -31.399651      219.64783      0.5          
    125000  -894.4784      -177.19962      218.2364       0.5          
    126000  -947.13805      151.07281      223.01674      0.5          
    127000  -998.64745     -175.75523      217.61333      0.5          
    128000  -915.8544      -98.777944      220.2341       0.5          
    129000  -949.72933      19.494406      217.22805      0.5          
    130000  -786.43863      281.23371      224.03859      0.5          
    131000  -749.8651       10.96802       221.45543      0.5          
    132000  -933.49947     -225.67988      217.93599      0.5          
    133000  -935.11597     -9.0224385      217.23236      0.5          
    134000  -1032.9069     -306.17755      216.1623       0.5          
    135000  -976.19165      98.251592      216.55611      0.5          
    136000  -809.82523      258.53326      222.80049      0.5          
    137000  -897.91532     -36.586298      221.0835       0.5          
    138000  -952.31779     -16.511904      221.7248       0.5          
    139000  -894.11272      147.11132      221.79843      0.5          
    140000  -788.72125      111.46427      220.63915      0.5          
    141000  -982.69376     -246.79549      219.69441      0.5          
    142000  -940.01171     -102.78237      219.6948       0.5          
    143000  -1004.8457      109.17142      217.012        0.5          
    144000  -867.29051      198.40876      219.38145      0.5          
    145000  -946.74457     -108.61566      218.84364      0.5          
    146000  -915.09213     -175.9088       221.39986      0.5          
    147000  -892.13683      85.228162      220.24783      0.5          
    148000  -816.32423      278.69485      223.69856      0.5          
    149000  -724.98831     -26.697654      223.67752      0.5          
    150000  -823.71287     -139.51847      222.28629      0.5          
    151000  -726.22429      81.923605      224.74018      0.5          
    152000  -867.06511      108.94482      219.73503      0.5          
    153000  -958.34602     -1.9537517      216.7606       0.5          
    154000  -936.49762     -58.782833      217.41299      0.5          
    155000  -937.40524      40.822921      219.99196      0.5          
    156000  -875.78917      211.16045      218.44806      0.5          
    157000  -858.7119      -166.37176      219.04769      0.5          
    158000  -800.32315      71.042985      221.11303      0.5          
    159000  -877.16623      53.430239      219.66644      0.5          
    160000  -939.56792     -222.70083      217.81971      0.5          
    161000  -891.50571      181.12774      219.65406      0.5          
    162000  -827.32248     -17.412397      221.64636      0.5          
    163000  -876.84345      59.587069      221.95208      0.5          
    164000  -835.718        184.28192      221.16442      0.5          
    165000  -879.61512      63.428311      221.73838      0.5          
    166000  -897.72742     -99.006988      220.99895      0.5          
    167000  -1016.3973      52.534958      218.65275      0.5          
    168000  -988.22414      77.846451      220.23339      0.5          
    169000  -827.54527     -189.4131       220.83568      0.5          
    170000  -897.41198     -252.17703      221.65693      0.5          
    171000  -963.80303     -159.22538      220.80151      0.5          
    172000  -912.13832      222.46368      219.78616      0.5          
    173000  -915.45088      94.465562      218.12644      0.5          
    174000  -897.49118     -352.71055      217.78496      0.5          
    175000  -871.67669     -128.38852      222.54183      0.5          
    176000  -857.52165     -21.827332      224.39119      0.5          
    177000  -891.51417      281.48856      221.23476      0.5          
    178000  -939.60163     -6.1740649      217.60679      0.5          
    179000  -879.71571     -65.830609      217.95521      0.5          
    180000  -952.12729     -40.347042      217.24785      0.5          
    181000  -837.75411      92.6387        220.52954      0.5          
    182000  -851.07712      86.155976      220.47778      0.5          
    183000  -873.74816     -69.08321       219.08628      0.5          
    184000  -830.08166      120.33512      218.39524      0.5          
    185000  -848.90426      184.80543      219.5968       0.5          
    186000  -727.51283      199.28022      223.06997      0.5          
    187000  -855.01796     -276.68969      221.1446       0.5          
    188000  -747.89425     -147.18427      220.83169      0.5          
    189000  -805.04311      210.68817      218.47615      0.5          
    190000  -850.00612     -107.59985      215.38667      0.5          
    191000  -831.32831     -46.648444      217.16103      0.5          
    192000  -762.97771     -93.904454      220.18959      0.5          
    193000  -713.90075      15.760033      222.66825      0.5          
    194000  -654.74236      264.42323      225.03267      0.5          
    195000  -839.29167      66.362637      217.92125      0.5          
    196000  -812.7394       95.125408      219.11164      0.5          
    197000  -831.9009       119.09248      220.60619      0.5          
    198000  -752.92294     -176.92872      221.16944      0.5          
    199000  -832.36988      80.073831      219.78926      0.5          
    200000  -815.56488      3.4267229      221.57479      0.5          
    201000  -866.66923     -187.77221      220.85191      0.5          
    202000  -836.12725      43.986137      220.12463      0.5          
    203000  -837.36347     -75.091695      218.55792      0.5          
    204000  -868.71944      176.25885      218.03468      0.5          
    205000  -765.05122      95.591475      222.92344      0.5          
    206000  -732.84567     -401.76146      220.81535      0.5          
    207000  -835.35768      27.6413        218.43588      0.5          
    208000  -861.50927      126.7385       216.20764      0.5          
    209000  -941.75229     -148.24803      215.8545       0.5          
    210000  -821.16727      65.784378      220.23727      0.5          
    211000  -830.18025      56.277788      215.43802      0.5          
    212000  -739.54458     -139.53986      220.64549      0.5          
    213000  -741.18562      248.53062      220.44071      0.5          
    214000  -842.90746     -45.922542      215.66315      0.5          
    215000  -731.68103     -74.585029      220.53006      0.5          
    216000  -779.18872     -114.12118      220.50306      0.5          
    217000  -740.90131      112.37028      219.02202      0.5          
    218000  -732.1547       82.400852      222.12558      0.5          
    219000  -938.01082      8.7369024      216.27118      0.5          
    220000  -821.50545      46.753886      219.80337      0.5          
    221000  -768.85035     -179.40234      220.42684      0.5          
    222000  -778.0628      -30.431252      217.63808      0.5          
    223000  -748.26479      199.45625      222.51817      0.5          
    224000  -776.48242     -274.58209      219.20248      0.5          
    225000  -718.91831      142.47782      221.99924      0.5          
    226000  -767.1081       244.7929       217.68218      0.5          
    227000  -712.98609      12.848902      220.74713      0.5          
    228000  -805.98474      157.87645      219.47491      0.5          
    229000  -775.31701     -90.129929      221.67313      0.5          
    230000  -804.37981     -69.00748       219.96602      0.5          
    231000  -795.45817      96.02016       221.01517      0.5          
    232000  -774.34591     -269.70966      221.22446      0.5          
    233000  -824.01985      37.753138      221.79781      0.5          
    234000  -913.50113     -48.946963      219.08662      0.5          
    235000  -793.32068     -286.02253      218.05083      0.5          
    236000  -786.6351       101.33718      220.0541       0.5          
    237000  -946.99857      175.74677      217.28412      0.5          
    238000  -873.2252      -166.22833      216.78453      0.5          
    239000  -839.02658      269.23629      218.83279      0.5          
    240000  -825.17547      69.439203      220.74647      0.5          
    241000  -742.77951     -132.7329       222.15508      0.5          
    242000  -878.28405     -20.616325      218.28241      0.5          
    243000  -886.07707      92.688487      220.28922      0.5          
    244000  -814.0481      -87.977927      220.38069      0.5          
    245000  -763.09835     -169.21701      222.8434       0.5          
    246000  -889.44615     -61.868394      219.71975      0.5          
    247000  -868.32598      49.452197      221.98027      0.5          
    248000  -924.54782      182.80099      216.75197      0.5          
    249000  -862.46172      122.39732      218.66254      0.5          
    250000  -822.34466     -169.02296      220.76375      0.5          
    251000  -911.95493      6.1893488      217.74547      0.5          
    252000  -943.97963      108.47734      217.28866      0.5          
    253000  -866.98581      16.441073      220.38245      0.5          
    254000  -819.78024     -152.7434       219.39754      0.5          
    255000  -929.58019      106.58296      219.77537      0.5          
    256000  -813.21791     -51.307384      219.11084      0.5          
    257000  -675.80596     -76.860976      223.96473      0.5          
    258000  -775.00195     -60.551197      222.05968      0.5          
    259000  -793.86871      220.82082      222.67502      0.5          
    260000  -834.76235     -38.468944      219.2869       0.5          
    261000  -843.83263     -101.17138      220.56105      0.5          
    262000  -796.43565      100.43         217.61634      0.5          
    263000  -732.36394     -31.483314      221.07969      0.5          
    264000  -680.0468       20.132717      222.89845      0.5          
    265000  -735.68402     -183.50668      222.40777      0.5          
    266000  -862.47447      60.115457      216.02387      0.5          
    267000  -781.13696      189.00854      219.46471      0.5          
    268000  -707.69273     -28.787447      221.95993      0.5          
    269000  -667.69645     -94.720339      219.82906      0.5          
    270000  -678.96435      166.84261      223.95712      0.5          
    271000  -645.55375      124.02914      222.00873      0.5          
    272000  -806.87607     -179.49427      219.20638      0.5          
    273000  -778.46473     -22.791471      221.29537      0.5          
    274000  -786.1344      -134.42224      216.89855      0.5          
    275000  -712.85527     -70.432654      220.11792      0.5          
    276000  -797.62594      92.162167      219.06645      0.5          
    277000  -654.82223      43.576577      224.13676      0.5          
    278000  -791.24152     -204.99473      221.51588      0.5          
    279000  -771.23828     -59.989572      221.65498      0.5          
    280000  -833.97537     -37.736014      214.98579      0.5          
    281000  -760.05593     -72.987996      222.85466      0.5          
    282000  -952.33844     -180.58374      216.64299      0.5          
    283000  -824.258        221.09462      220.92968      0.5          
    284000  -873.47159      38.387974      219.30068      0.5          
    285000  -747.5244      -12.450906      221.52264      0.5          
    286000  -920.78588      183.69852      219.77106      0.5          
    287000  -747.17183     -187.19295      224.87778      0.5          
    288000  -761.95504     -119.59584      222.82261      0.5          
    289000  -892.54764      107.88915      221.92417      0.5          
    290000  -953.69731      3.3308088      216.7781       0.5          
    291000  -786.83767      220.33671      220.83671      0.5          
    292000  -837.13364     -72.887859      218.77202      0.5          
    293000  -908.01073     -17.101626      219.32934      0.5          
    294000  -989.82844      123.84408      217.65839      0.5          
    295000  -873.41732     -7.408504       218.85506      0.5          
    296000  -898.24982     -184.32282      220.01068      0.5          
    297000  -952.95955      108.88398      217.14696      0.5          
    298000  -911.00902      137.62551      218.27787      0.5          
    299000  -924.18751      162.08773      218.50591      0.5          
    300000  -730.60486      364.74975      222.42832      0.5          
    301000  -873.71915     -58.778353      216.76111      0.5          
    302000  -787.39749      16.398382      220.61521      0.5          
    303000  -872.07679      107.91662      221.60839      0.5          
    304000  -872.44455     -8.3970784      218.09375      0.5          
    305000  -837.62347     -109.74822      219.95913      0.5          
    306000  -819.77479     -137.61762      219.89291      0.5          
    307000  -853.82869      104.85511      218.19522      0.5          
    308000  -917.63883      56.087733      217.59631      0.5          
    309000  -877.89573     -2.9184431      218.53297      0.5          
    310000  -794.74038     -53.013298      219.38161      0.5          
    311000  -855.03257      310.16663      219.83251      0.5          
    312000  -774.54381      73.520965      219.85921      0.5          
    313000  -773.02505     -173.81544      222.9023       0.5          
    314000  -749.45596     -133.53826      220.96616      0.5          
    315000  -646.1116      -21.484295      221.78918      0.5          
    316000  -705.4372       220.39252      221.16353      0.5          
    317000  -603.41636      245.85511      222.79         0.5          
    318000  -667.89446     -220.25783      221.67166      0.5          
    319000  -693.63226     -217.51227      222.97064      0.5          
    320000  -697.99231     -41.304629      221.23073      0.5          
    321000  -778.03787      79.669561      220.30464      0.5          
    322000  -777.2388       160.35191      220.48206      0.5          
    323000  -818.19297     -190.79227      219.36999      0.5          
    324000  -713.29668     -76.767372      221.16712      0.5          
    325000  -826.82895      185.5034       217.79038      0.5          
    326000  -853.09995     -69.654052      217.85778      0.5          
    327000  -817.2733      -83.785056      218.51033      0.5          
    328000  -734.45725      165.47641      223.83539      0.5          
    329000  -753.926        29.94376       221.85769      0.5          
    330000  -812.06189     -248.52525      222.20587      0.5          
    331000  -725.16567     -66.575391      222.73254      0.5          
    332000  -938.60101      53.154306      216.92697      0.5          
    333000  -890.37358      106.02315      219.45359      0.5          
    334000  -835.08421     -269.32638      219.63757      0.5          
    335000  -858.64208      43.893078      217.46548      0.5          
    336000  -833.62077      61.032618      222.15055      0.5          
    337000  -896.54593      98.702918      223.35949      0.5          
    338000  -916.44061     -82.995792      216.12942      0.5          
    339000  -758.29975      84.425387      220.88624      0.5          
    340000  -847.43029      145.84962      222.85607      0.5          
    341000  -891.73226      184.55574      223.85513      0.5          
    342000  -944.46775      23.053665      219.99836      0.5          
    343000  -943.82813      66.088709      221.90481      0.5          
    344000  -1003.6423      123.6793       217.50542      0.5          
    345000  -867.17985      86.610849      221.94131      0.5          
    346000  -794.99974     -139.45803      224.04387      0.5          
    347000  -955.00767     -134.04905      217.93144      0.5          
    348000  -950.62196      275.21494      217.69776      0.5          
    349000  -985.83355      213.57561      216.10693      0.5          
    350000  -872.93597     -169.38776      217.35804      0.5          
    351000  -917.86827     -12.793833      217.2401       0.5          
    352000  -972.86485     -8.2293337      216.272        0.5          
    353000  -884.63807      109.41028      219.69972      0.5          
    354000  -758.66719      243.59687      223.74694      0.5          
    355000  -784.73651     -68.639558      222.56215      0.5          
    356000  -825.11094      203.89692      223.33607      0.5          
    357000  -813.49388      164.86276      221.01993      0.5          
    358000  -875.09295     -19.318037      219.92909      0.5          
    359000  -825.46921      65.116023      219.10977      0.5          
    360000  -806.78912      111.61586      219.15018      0.5          
    361000  -799.13562     -41.742091      218.21003      0.5          
    362000  -736.65838      124.66868      222.86495      0.5          
    363000  -767.28605     -0.96039071     221.26266      0.5          
    364000  -741.47468     -79.851952      220.57811      0.5          
    365000  -775.5323      -169.92296      219.28489      0.5          
    366000  -750.21981      0.017705288    220.18585      0.5          
    367000  -806.09536      0.52913701     216.35009      0.5          
    368000  -897.73872     -17.469069      216.22846      0.5          
    369000  -848.68887     -18.670743      218.97594      0.5          
    370000  -834.65903      58.543091      219.89652      0.5          
    371000  -704.7715       269.08299      223.3606       0.5          
    372000  -888.01895      234.98356      216.74175      0.5          
    373000  -753.88845      12.353038      220.55891      0.5          
    374000  -795.97474      47.390731      217.72135      0.5          
    375000  -702.36674     -52.510081      222.54792      0.5          
    376000  -726.32065     -143.42298      220.93614      0.5          
    377000  -738.39048     -6.0012056      221.03543      0.5          
    378000  -781.0012      -190.36936      219.8454       0.5          
    379000  -757.76231     -118.00987      220.90118      0.5          
    380000  -777.67599      113.78392      219.74727      0.5          
    381000  -705.17706      86.159219      222.04667      0.5          
    382000  -869.22674      77.71171       217.56566      0.5          
    383000  -800.63327     -89.469048      221.14221      0.5          
    384000  -773.80777      59.418488      222.04226      0.5          
    385000  -814.23671     -139.13468      215.86047      0.5          
    386000  -697.12892     -59.217903      222.69138      0.5          
    387000  -701.16725      55.938478      222.24906      0.5          
    388000  -820.9561       138.73751      219.36252      0.5          
    389000  -797.37733     -309.44374      218.03429      0.5          
    390000  -802.39808     -21.438423      218.68367      0.5          
    391000  -707.47654      314.82548      220.52555      0.5          
    392000  -796.65611     -140.63703      220.46618      0.5          
    393000  -698.53182     -310.18927      222.12698      0.5          
    394000  -798.38561      291.01648      219.21645      0.5          
    395000  -670.41478      214.21237      223.56092      0.5          
    396000  -806.83223      10.613734      217.64646      0.5          
    397000  -738.61735      250.2249       225.12557      0.5          
    398000  -880.40553     -205.39587      219.75289      0.5          
    399000  -928.64872     -206.06978      215.972        0.5          
    400000  -694.27895      369.4463       224.47425      0.5          
    401000  -860.62292     -183.10242      219.80155      0.5          
    402000  -884.41769     -158.58182      217.58751      0.5          
    403000  -846.88229      206.09329      218.98025      0.5          
    404000  -851.3785       58.795546      218.532        0.5          
    405000  -862.47246      29.739561      217.77419      0.5          
    406000  -876.18278     -31.332849      219.61021      0.5          
    407000  -783.97574     -109.48614      219.64176      0.5          
    408000  -770.32198      279.10601      221.78812      0.5          
    409000  -882.35117     -128.48416      218.43117      0.5          
    410000  -811.46462     -309.33304      220.3665       0.5          
    411000  -820.3368      -26.899445      220.1358       0.5          
    412000  -687.06112      265.94561      222.13503      0.5          
    413000  -681.24653     -127.44412      220.35508      0.5          
    414000  -719.30406     -260.3078       221.76722      0.5          
    415000  -854.3771      -75.4151        216.39617      0.5          
    416000  -794.62004      226.86089      219.45093      0.5          
    417000  -824.33331     -306.00294      219.38432      0.5          
    418000  -812.33933      42.880117      222.13779      0.5          
    419000  -796.1324      -91.607763      217.4402       0.5          
    420000  -761.40847      11.964048      219.05189      0.5          
    421000  -789.77629     -165.80499      216.9502       0.5          
    422000  -781.249        24.147408      221.0602       0.5          
    423000  -699.39575      258.63743      219.63991      0.5          
    424000  -692.5904      -299.3239       224.58506      0.5          
    425000  -705.79364      388.67552      224.16558      0.5          
    426000  -750.27811      141.66844      219.58363      0.5          
    427000  -736.49354     -392.91157      217.84682      0.5          
    428000  -831.08546     -147.70724      218.22848      0.5          
    429000  -696.65427     -66.161915      221.7284       0.5          
    430000  -704.2111       118.33088      220.6033       0.5          
    431000  -742.79869      50.225264      219.06481      0.5          
    432000  -820.85052     -46.467055      219.2726       0.5          
    433000  -767.12403     -135.46545      223.1237       0.5          
    434000  -810.96377      232.29608      218.78868      0.5          
    435000  -795.45135      8.9281632      217.34314      0.5          
    436000  -722.02886      235.15208      221.35711      0.5          
    437000  -758.63579      110.09238      219.6074       0.5          
    438000  -773.66663     -137.05551      220.61017      0.5          
    439000  -799.51796     -29.844732      219.1977       0.5          
    440000  -875.12427      131.7609       218.10257      0.5          
    441000  -800.16834     -31.628072      218.39669      0.5          
    442000  -697.48007      16.234246      219.91885      0.5          
    443000  -743.65832     -91.735348      220.82633      0.5          
    444000  -619.46565      21.351094      223.75354      0.5          
    445000  -798.65266     -108.53255      218.90339      0.5          
    446000  -821.95092      108.82679      216.70085      0.5          
    447000  -725.92034      302.31466      222.49915      0.5          
    448000  -860.6838      -92.359385      217.4959       0.5          
    449000  -844.06554      34.818006      220.46734      0.5          
    450000  -868.16407      139.21861      220.33274      0.5          
    451000  -930.81757     -106.27818      217.27563      0.5          
    452000  -757.9881       35.806072      221.60445      0.5          
    453000  -815.3          214.24792      223.39507      0.5          
    454000  -870.02251     -39.042274      220.28332      0.5          
    455000  -848.96348      189.14911      218.89287      0.5          
    456000  -782.94366      135.38151      219.46327      0.5          
    457000  -770.87564      253.64941      222.04518      0.5          
    458000  -792.11027      36.833288      221.36543      0.5          
    459000  -861.63737     -53.820271      218.57581      0.5          
    460000  -830.17281     -24.788811      222.00202      0.5          
    461000  -836.31928      174.33546      221.86544      0.5          
    462000  -851.08244     -53.066918      218.80675      0.5          
    463000  -703.59006      190.71644      223.718        0.5          
    464000  -781.26381      35.193549      220.17358      0.5          
    465000  -778.74755     -258.68059      221.67988      0.5          
    466000  -796.94789      351.22096      217.15799      0.5          
    467000  -787.13658      120.5963       218.99414      0.5          
    468000  -793.31038     -255.93916      220.43063      0.5          
    469000  -794.76496      83.173209      219.97926      0.5          
    470000  -704.99139     -90.828006      220.84236      0.5          
    471000  -695.7342      -112.32919      222.14286      0.5          
    472000  -801.70021      130.62535      218.51159      0.5          
    473000  -834.00505     -145.67336      213.86414      0.5          
    474000  -624.46103      13.986297      221.14109      0.5          
    475000  -611.62449      60.78059       221.29916      0.5          
    476000  -624.6798       182.31606      221.26898      0.5          
    477000  -653.62036     -234.9675       223.97321      0.5          
    478000  -642.29844     -205.48988      222.70469      0.5          
    479000  -759.78496      182.03607      219.095        0.5          
    480000  -732.08412     -118.20541      220.16241      0.5          
    481000  -805.31884      63.690294      219.63857      0.5          
    482000  -709.94802      17.262734      219.96413      0.5          
    483000  -790.62561      65.94166       217.23207      0.5          
    484000  -771.50147      87.763018      221.98105      0.5          
    485000  -767.12766      186.72902      221.91606      0.5          
    486000  -676.82344      316.71944      223.12809      0.5          
    487000  -746.80914      122.93029      221.60299      0.5          
    488000  -781.55433      126.90574      221.36109      0.5          
    489000  -864.79655      52.033252      220.03258      0.5          
    490000  -992.59115     -229.16486      215.81288      0.5          
    491000  -924.89892     -119.08322      217.04474      0.5          
    492000  -851.26383      69.99206       218.9212       0.5          
    493000  -834.32553      159.0433       222.57878      0.5          
    494000  -796.87893     -50.512033      221.64388      0.5          
    495000  -908.09666     -294.87158      216.12211      0.5          
    496000  -858.24392      65.909425      220.53035      0.5          
    497000  -719.45913      148.02499      222.28045      0.5          
    498000  -702.76826      199.0995       222.08441      0.5          
    499000  -582.66228     -32.444932      221.14029      0.5          
    500000  -763.22015     -111.12479      221.54924      0.5          
    501000  -776.2668       296.08847      219.45209      0.5          
    502000  -785.13075      261.29826      219.75468      0.5          
    503000  -761.12704     -172.72032      222.09467      0.5          
    504000  -838.19834     -185.22807      217.9966       0.5          
    505000  -755.44798      52.512443      219.58819      0.5          
    506000  -653.12984     -3.5648595      222.61403      0.5          
    507000  -750.59483      121.71577      222.02531      0.5          
    508000  -751.73445     -36.806151      218.49677      0.5          
    509000  -746.08767     -503.2104       216.6181       0.5          
    510000  -870.47956      89.187487      214.76482      0.5          
    511000  -794.16316      392.8661       219.33015      0.5          
    512000  -671.59472      115.5405       219.76271      0.5          
    513000  -703.61639     -8.3851576      218.24963      0.5          
    514000  -897.41118      48.56596       215.60782      0.5          
    515000  -802.07287      49.331133      220.42422      0.5          
    516000  -797.09008     -232.28436      220.14617      0.5          
    517000  -726.38977     -176.1678       222.38823      0.5          
    518000  -755.11882     -32.182349      214.94607      0.5          
    519000  -721.39044      288.2765       221.8185       0.5          
    520000  -791.57363      77.890984      219.70619      0.5          
    521000  -642.6232       61.831073      225.19929      0.5          
    522000  -764.54399      169.57941      219.36996      0.5          
    523000  -694.57737      47.185841      220.49411      0.5          
    524000  -880.89324     -67.512138      213.82071      0.5          
    525000  -751.28303      409.60246      219.55126      0.5          
    526000  -817.97717      191.5105       220.07955      0.5          
    527000  -738.11066     -208.71281      223.88828      0.5          
    528000  -859.78488     -28.679208      221.86211      0.5          
    529000  -841.57962      225.35085      219.79826      0.5          
    530000  -755.66649      74.525348      218.17489      0.5          
    531000  -801.51809     -21.975546      219.13457      0.5          
    532000  -797.65342      49.718625      219.69389      0.5          
    533000  -736.86503     -50.771076      222.16476      0.5          
    534000  -810.84432     -72.198         221.14433      0.5          
    535000  -771.41344     -21.988163      222.07182      0.5          
    536000  -841.87897      49.115914      217.4445       0.5          
    537000  -756.72605     -8.1555796      222.24768      0.5          
    538000  -649.87039      11.634348      223.76127      0.5          
    539000  -743.01407      50.231753      221.75045      0.5          
    540000  -751.97745     -11.963895      220.41593      0.5          
    541000  -766.95698     -32.791247      222.06383      0.5          
    542000  -715.46985      119.97402      218.36664      0.5          
    543000  -613.22369      72.528351      222.82034      0.5          
    544000  -774.17361      91.527733      217.05364      0.5          
    545000  -579.25706      125.46242      222.73835      0.5          
    546000  -631.22106     -8.924455       221.35569      0.5          
    547000  -674.26711      78.027152      219.02122      0.5          
    548000  -762.67521     -107.98532      217.38883      0.5          
    549000  -707.78073      30.02577       219.41309      0.5          
    550000  -776.01979      60.956818      217.59343      0.5          
    551000  -795.36709     -130.8024       218.46815      0.5          
    552000  -669.29556      72.875936      222.73647      0.5          
    553000  -667.01371     -173.172        220.58804      0.5          
    554000  -653.62023     -112.17864      223.46497      0.5          
    555000  -678.8676       212.60859      222.13095      0.5          
    556000  -796.79809     -14.809262      217.45289      0.5          
    557000  -762.20635     -237.28234      217.44622      0.5          
    558000  -692.05357      262.93433      218.86483      0.5          
    559000  -722.35573      143.19598      220.95663      0.5          
    560000  -770.81987     -402.22072      219.81422      0.5          
    561000  -700.32342      16.195051      222.84437      0.5          
    562000  -764.5672       201.95375      217.50598      0.5          
    563000  -696.93927      87.992134      220.91068      0.5          
    564000  -682.42006     -99.315164      219.71761      0.5          
    565000  -727.57293      132.02606      222.52982      0.5          
    566000  -694.06626     -105.4744       223.8365       0.5          
    567000  -843.59996      161.79012      214.16886      0.5          
    568000  -723.73654      160.28583      220.95859      0.5          
    569000  -678.40162     -13.364399      223.02357      0.5          
    570000  -653.56179      203.79519      219.34251      0.5          
    571000  -715.73626      71.380573      217.83932      0.5          
    572000  -729.25657      138.02875      221.24038      0.5          
    573000  -691.58819     -82.745633      224.53865      0.5          
    574000  -731.11183      128.79839      220.77073      0.5          
    575000  -745.73115     -184.00004      221.01036      0.5          
    576000  -728.21095      12.795368      219.82125      0.5          
    577000  -810.68485     -86.583029      219.24364      0.5          
    578000  -678.35472     -215.6828       220.40528      0.5          
    579000  -750.65261      8.0715131      218.60621      0.5          
    580000  -793.23246     -281.97288      219.31627      0.5          
    581000  -704.37046     -208.67274      218.69096      0.5          
    582000  -706.92208      81.462528      218.72015      0.5          
    583000  -741.29299     -346.78055      216.99519      0.5          
    584000  -758.8788       66.536169      219.03934      0.5          
    585000  -673.50632      80.3093        222.27466      0.5          
    586000  -788.37467     -348.86724      218.85989      0.5          
    587000  -724.57714     -39.891824      220.25522      0.5          
    588000  -782.54005      107.46698      218.91295      0.5          
    589000  -738.96386      13.445605      220.59734      0.5          
    590000  -843.41139      39.332356      216.91041      0.5          
    591000  -745.25977      100.59043      221.93868      0.5          
    592000  -745.27703      53.429437      219.53177      0.5          
    593000  -696.00301     -262.59555      222.27426      0.5          
    594000  -821.18568     -25.326574      220.53875      0.5          
    595000  -705.94287      331.33313      221.27758      0.5          
    596000  -708.10061      177.60495      221.8509       0.5          
    597000  -779.54186     -200.68838      219.96123      0.5          
    598000  -804.07106     -149.87901      216.958        0.5          
    599000  -633.78036     -120.05305      222.69816      0.5          
    600000  -770.57799      123.53479      220.536        0.5          
    601000  -824.90473      237.89455      217.54514      0.5          
    602000  -732.51954     -113.83318      220.88391      0.5          
    603000  -886.23352     -190.0451       216.74394      0.5          
    604000  -806.60951      179.41588      219.21347      0.5          
    605000  -714.44254     -22.869094      222.511        0.5          
    606000  -693.99217      384.94566      220.86757      0.5          
    607000  -744.07434      27.553657      218.68776      0.5          
    608000  -813.1803      -500.14685      215.63618      0.5          
    609000  -855.73223      27.313816      218.21695      0.5          
    610000  -806.06074      312.05476      218.08711      0.5          
    611000  -819.32998     -184.17154      219.55074      0.5          
    612000  -699.98693      173.44721      219.92304      0.5          
    613000  -844.08179      68.604046      220.56385      0.5          
    614000  -731.74948     -243.29587      217.84922      0.5          
    615000  -700.978       -29.305995      222.38766      0.5          
    616000  -772.78672      250.64178      219.97461      0.5          
    617000  -771.77139     -127.75126      219.99256      0.5          
    618000  -743.88959     -344.67381      217.862        0.5          
    619000  -784.37584      109.57274      215.68938      0.5          
    620000  -682.4016       20.772911      219.59375      0.5          
    621000  -667.80951     -139.61011      221.00266      0.5          
    622000  -640.98094     -3.3879516      223.37795      0.5          
    623000  -721.35872      94.384266      217.27105      0.5          
    624000  -621.11871     -138.38483      219.92153      0.5          
    625000  -714.62477     -157.45446      219.06516      0.5          
    626000  -587.98112     -63.724273      223.58642      0.5          
    627000  -662.80042      49.197494      219.66386      0.5          
    628000  -655.3754       148.91166      218.88551      0.5          
    629000  -659.0208       7.2581724      218.82233      0.5          
    630000  -586.9851       53.371849      222.26006      0.5          
    631000  -597.04264     -4.8392529      219.98406      0.5          
    632000  -695.08841      52.259775      216.98755      0.5          
    633000  -687.76506     -146.35896      221.8648       0.5          
    634000  -645.83706      94.816996      221.45645      0.5          
    635000  -654.78631      77.300365      221.62963      0.5          
    636000  -807.95295      125.63341      214.14354      0.5          
    637000  -608.50836     -40.020449      222.52777      0.5          
    638000  -667.43653     -149.10323      224.0832       0.5          
    639000  -691.24152     -67.390922      219.68831      0.5          
    640000  -688.17256     -14.221727      219.12612      0.5          
    641000  -571.95203     -21.152592      221.16415      0.5          
    642000  -559.04856      288.88849      223.13888      0.5          
    643000  -636.15173      18.840266      219.72552      0.5          
    644000  -679.37184      3.0719696      219.49676      0.5          
    645000  -619.217        297.77131      221.20072      0.5          
    646000  -651.70656      8.1708322      218.95463      0.5          
    647000  -650.16458     -221.58571      221.66685      0.5          
    648000  -745.20866     -241.8238       221.3658       0.5          
    649000  -582.68453      281.49889      221.83583      0.5          
    650000  -695.33894      405.3748       220.43751      0.5          
    651000  -768.10872     -150.43554      217.8588       0.5          
    652000  -673.65583      51.363264      221.61426      0.5          
    653000  -802.84821     -65.954073      215.72603      0.5          
    654000  -675.71997      51.239965      218.84634      0.5          
    655000  -689.45677      457.12661      220.54539      0.5          
    656000  -645.14267     -109.29423      220.98675      0.5          
    657000  -771.15808     -149.63653      216.52585      0.5          
    658000  -723.78797      5.4586258      218.37125      0.5          
    659000  -698.09185     -141.38883      218.03878      0.5          
    660000  -677.79511      98.058015      218.98463      0.5          
    661000  -582.37815     -15.140865      222.30409      0.5          
    662000  -749.25793     -331.06586      218.81795      0.5          
    663000  -685.51701     -9.6268172      222.17223      0.5          
    664000  -713.11584      86.765485      218.07495      0.5          
    665000  -652.49296      122.7609       219.43901      0.5          
    666000  -704.82283      249.55113      217.38252      0.5          
    667000  -632.02456     -406.13291      219.1893       0.5          
    668000  -751.36738      88.702313      221.16373      0.5          
    669000  -748.93687      275.62541      218.46637      0.5          
    670000  -711.15813     -16.27712       220.88224      0.5          
    671000  -704.07078     -190.84063      217.54672      0.5          
    672000  -706.66701      28.632914      223.15507      0.5          
    673000  -766.87737      110.08898      216.91957      0.5          
    674000  -680.00249      13.88541       220.93632      0.5          
    675000  -752.29747     -210.21252      218.13188      0.5          
    676000  -793.63897      14.783508      217.9873       0.5          
    677000  -791.84795      169.77584      217.66532      0.5          
    678000  -698.29379     -116.40977      221.71739      0.5          
    679000  -712.97836     -324.61335      221.02128      0.5          
    680000  -674.05772      138.55474      219.32968      0.5          
    681000  -762.18978      40.889421      217.37279      0.5          
    682000  -705.69168     -34.780273      219.90255      0.5          
    683000  -756.41048      240.06987      218.28322      0.5          
    684000  -798.19595      162.75472      218.09523      0.5          
    685000  -654.09235     -58.456796      221.7869       0.5          
    686000  -760.2749       0.42538265     216.7584       0.5          
    687000  -706.10795      158.32122      218.21199      0.5          
    688000  -742.00683     -221.70587      219.71516      0.5          
    689000  -584.06048     -293.42471      220.78209      0.5          
    690000  -600.93347     -226.67456      222.65098      0.5          
    691000  -648.98465     -65.669174      222.87137      0.5          
    692000  -829.95074     -5.7149571      215.72942      0.5          
    693000  -660.12006      32.103656      219.55885      0.5          
    694000  -692.91602     -165.94972      220.92839      0.5          
    695000  -728.26017     -20.942101      219.03551      0.5          
    696000  -584.54117      275.59931      224.95997      0.5          
    697000  -595.26894     -21.718351      221.89253      0.5          
    698000  -671.60613     -352.23106      220.47406      0.5          
    699000  -616.6794      -33.042368      223.51152      0.5          
    700000  -741.07601     -189.72015      218.53531      0.5          
    701000  -654.60912     -330.80481      222.89156      0.5          
    702000  -669.92567      273.05064      218.8631       0.5          
    703000  -673.35013      82.341917      221.02087      0.5          
    704000  -616.51325     -74.021742      222.34265      0.5          
    705000  -717.22078     -98.827458      219.2052       0.5          
    706000  -674.97499      73.703186      222.48916      0.5          
    707000  -691.85029     -9.5280319      217.99421      0.5          
    708000  -665.05656     -228.5786       221.47682      0.5          
    709000  -654.03738      12.088853      220.88138      0.5          
    710000  -663.84462      138.78534      220.8692       0.5          
    711000  -646.40829      113.96873      222.3134       0.5          
    712000  -658.70678     -80.385572      220.94404      0.5          
    713000  -732.51705     -78.533164      218.3983       0.5          
    714000  -673.60677      126.42414      219.37291      0.5          
    715000  -690.51985      195.60359      219.86121      0.5          
    716000  -789.18828     -29.911348      217.35922      0.5          
    717000  -700.61343      146.77758      222.35475      0.5          
    718000  -713.60497      35.42302       219.95056      0.5          
    719000  -751.90965      272.5078       216.5113       0.5          
    720000  -752.08627     -300.60904      218.53258      0.5          
    721000  -684.20107     -510.57522      219.09553      0.5          
    722000  -653.70133      79.748504      221.26679      0.5          
    723000  -676.03051      184.73216      217.52561      0.5          
    724000  -591.8835       7.3146625      223.61375      0.5          
    725000  -702.68576     -234.61113      218.60162      0.5          
    726000  -712.33168      254.81056      219.01356      0.5          
    727000  -769.47261      57.607563      218.07691      0.5          
    728000  -728.7509      -305.96649      216.57788      0.5          
    729000  -496.79662     -246.96728      224.80142      0.5          
    730000  -632.62062     -111.68493      221.62026      0.5          
    731000  -672.92774      205.23085      223.21438      0.5          
    732000  -836.32911     -52.551594      215.57512      0.5          
    733000  -655.23714      205.79188      219.97523      0.5          
    734000  -607.9433       249.66584      222.8975       0.5          
    735000  -659.21731      8.8965336      218.8589       0.5          
    736000  -598.90504      97.414374      220.57499      0.5          
    737000  -647.54692     -0.62168853     220.28713      0.5          
    738000  -772.98456      120.1904       222.2734       0.5          
    739000  -752.34009     -202.47662      218.60177      0.5          
    740000  -680.19287     -122.39146      218.58367      0.5          
    741000  -800.10053      358.34413      217.77844      0.5          
    742000  -641.83511      12.833051      225.31707      0.5          
    743000  -707.60398      4.3078704      223.39303      0.5          
    744000  -789.25718      7.4588698      217.81893      0.5          
    745000  -768.16887      55.042302      218.84566      0.5          
    746000  -547.23772      280.56454      223.61553      0.5          
    747000  -718.95539      142.20754      222.30927      0.5          
    748000  -718.16488     -32.258876      218.451        0.5          
    749000  -723.35147     -232.09407      221.09274      0.5          
    750000  -720.5228       249.11638      220.418        0.5          
    751000  -727.8072      -159.90586      218.12156      0.5          
    752000  -607.25497     -118.37647      224.7993       0.5          
    753000  -786.33273     -27.254919      216.93735      0.5          
    754000  -837.71985      332.39935      215.50658      0.5          
    755000  -646.19435      56.687946      220.51775      0.5          
    756000  -788.84242     -269.88865      217.61165      0.5          
    757000  -749.69709      130.51826      218.51026      0.5          
    758000  -725.29352      180.92645      220.04905      0.5          
    759000  -529.23087     -632.90205      225.14871      0.5          
    760000  -646.04429      82.303786      220.68914      0.5          
    761000  -690.0197       23.705812      221.38415      0.5          
    762000  -555.18276      65.844558      224.88762      0.5          
    763000  -667.48497      169.16515      219.75442      0.5          
    764000  -610.99968      108.02105      222.55691      0.5          
    765000  -659.41313     -261.98166      219.72161      0.5          
    766000  -702.80061     -95.030896      217.21198      0.5          
    767000  -691.09556      160.40085      218.78503      0.5          
    768000  -665.39436      324.59429      219.31843      0.5          
    769000  -636.03265     -175.78567      219.97019      0.5          
    770000  -698.80626     -163.92116      219.11723      0.5          
    771000  -625.09559     -159.39673      223.29151      0.5          
    772000  -720.57828     -124.64383      219.73454      0.5          
    773000  -625.6453       92.213711      221.66852      0.5          
    774000  -784.94302     -160.09889      217.68786      0.5          
    775000  -664.08608     -89.866868      221.09469      0.5          
    776000  -711.82727      348.47511      219.54491      0.5          
    777000  -739.05827      15.934335      218.83962      0.5          
    778000  -719.92764     -43.008867      223.11356      0.5          
    779000  -650.25862      129.88806      220.5057       0.5          
    780000  -734.6478      -94.697035      219.92214      0.5          
    781000  -718.98865      159.59436      219.25588      0.5          
    782000  -785.5234       219.40012      217.97509      0.5          
    783000  -692.50495      112.65259      222.58303      0.5          
    784000  -817.68308     -72.358582      220.2066       0.5          
    785000  -758.36098      26.15222       219.50819      0.5          
    786000  -668.45342      5.6707428      222.38789      0.5          
    787000  -797.01784     -154.86618      218.07882      0.5          
    788000  -712.56905     -62.455343      221.95397      0.5          
    789000  -689.21935      223.69977      223.64661      0.5          
    790000  -782.0664      -213.28659      216.43943      0.5          
    791000  -695.43622     -149.42172      221.31788      0.5          
    792000  -620.89785      158.85482      219.01834      0.5          
    793000  -647.11455      127.77382      223.31152      0.5          
    794000  -614.4989      -63.458321      221.51731      0.5          
    795000  -668.05663      112.17247      219.70372      0.5          
    796000  -636.65908      44.959181      224.42805      0.5          
    797000  -737.15382      162.35677      220.14122      0.5          
    798000  -671.76998      71.951202      221.64104      0.5          
    799000  -728.03442     -333.58954      216.7994       0.5          
    800000  -588.1285       121.59289      222.81091      0.5          
    801000  -644.04006      129.34654      219.98505      0.5          
    802000  -577.9579      -61.731755      222.01779      0.5          
    803000  -683.26241     -81.709545      218.20402      0.5          
    804000  -696.42231     -34.010993      216.28103      0.5          
    805000  -739.38353     -72.317805      219.03216      0.5          
    806000  -706.75635     -75.89412       217.60711      0.5          
    807000  -694.7285       184.91844      216.84657      0.5          
    808000  -639.11304      95.55938       221.09121      0.5          
    809000  -653.75285     -0.56755764     222.07418      0.5          
    810000  -812.24231     -43.406936      213.30459      0.5          
    811000  -691.517       -47.23237       221.76501      0.5          
    812000  -653.10981     -92.769354      220.40761      0.5          
    813000  -639.13739      67.056098      220.82618      0.5          
    814000  -720.02726      234.78311      220.39519      0.5          
    815000  -689.77725     -12.322789      222.69181      0.5          
    816000  -735.95745     -68.804328      220.32694      0.5          
    817000  -859.78401      193.42014      217.55804      0.5          
    818000  -631.68226     -25.054729      222.89162      0.5          
    819000  -725.16011     -307.35553      219.8461       0.5          
    820000  -772.19269     -85.307595      217.36107      0.5          
    821000  -801.87411      141.93991      219.38756      0.5          
    822000  -727.13204     -115.75786      221.4679       0.5          
    823000  -775.27877     -27.825165      217.2573       0.5          
    824000  -740.63729     -194.53292      220.27738      0.5          
    825000  -765.41003     -173.3317       219.32156      0.5          
    826000  -579.80215      308.25923      225.19171      0.5          
    827000  -699.39862     -40.495552      219.68682      0.5          
    828000  -675.58825      170.08009      220.94514      0.5          
    829000  -617.54819      171.46319      220.90135      0.5          
    830000  -759.39006     -299.84968      219.1067       0.5          
    831000  -662.57053      215.08788      218.59211      0.5          
    832000  -673.56593      97.741405      218.41771      0.5          
    833000  -664.1491       171.63891      222.35036      0.5          
    834000  -607.62633      136.76817      221.98432      0.5          
    835000  -683.43485     -211.47769      220.1066       0.5          
    836000  -714.54726      158.4047       219.69374      0.5          
    837000  -795.53559      165.0929       213.94443      0.5          
    838000  -608.03536     -240.3979       218.48333      0.5          
    839000  -726.40139      84.695063      218.96409      0.5          
    840000  -736.39012     -124.53517      218.32554      0.5          
    841000  -558.20659     -250.17333      223.63451      0.5          
    842000  -703.00217     -99.742551      219.82145      0.5          
    843000  -656.91873      59.047914      222.06192      0.5          
    844000  -587.66211      125.24497      222.109        0.5          
    845000  -646.05489      55.016256      219.86995      0.5          
    846000  -675.81512     -34.878621      221.00746      0.5          
    847000  -764.08087      2.1662304      216.44706      0.5          
    848000  -684.15427     -104.46307      219.17323      0.5          
    849000  -689.5674      -89.225316      220.89119      0.5          
    850000  -721.15322      152.28295      220.34155      0.5          
    851000  -596.76897     -92.232196      222.50241      0.5          
    852000  -541.49892     -12.319191      222.49741      0.5          
    853000  -594.71237      10.004345      220.42315      0.5          
    854000  -760.94015      22.626645      216.79362      0.5          
    855000  -685.22038      294.02663      222.35954      0.5          
    856000  -727.76833     -97.275961      217.19841      0.5          
    857000  -675.34953     -310.25927      222.37958      0.5          
    858000  -620.71447     -64.103909      223.82808      0.5          
    859000  -843.91148      28.963906      215.73136      0.5          
    860000  -765.57526      266.54922      218.99198      0.5          
    861000  -610.58614      101.49093      218.98908      0.5          
    862000  -693.70396      62.170665      218.13728      0.5          
    863000  -695.22186      150.39301      218.1805       0.5          
    864000  -629.20436      68.867643      220.17522      0.5          
    865000  -663.68365     -241.65532      220.53442      0.5          
    866000  -697.17883      63.895811      221.44485      0.5          
    867000  -559.21872      375.35044      222.17114      0.5          
    868000  -656.44477      39.742803      222.68943      0.5          
    869000  -585.80264     -112.49829      224.64896      0.5          
    870000  -535.63839     -74.397087      223.3114       0.5          
    871000  -527.63128      128.7807       224.64645      0.5          
    872000  -569.91885      56.035692      221.03038      0.5          
    873000  -668.97671      24.323076      218.07639      0.5          
    874000  -638.19637      52.654206      221.28766      0.5          
    875000  -703.43597      109.02733      221.36103      0.5          
    876000  -651.70639     -39.467634      217.03051      0.5          
    877000  -599.31388     -15.128827      219.61642      0.5          
    878000  -757.52594     -67.390473      219.9939       0.5          
    879000  -723.83994      74.361335      219.39834      0.5          
    880000  -736.54598     -19.111859      218.24648      0.5          
    881000  -725.65878     -26.022088      218.91069      0.5          
    882000  -664.00945     -42.510969      221.45905      0.5          
    883000  -644.19328      46.545406      220.23835      0.5          
    884000  -714.41969     -7.8174267      220.29251      0.5          
    885000  -683.32868      13.464886      221.6046       0.5          
    886000  -693.04742      153.60251      223.52479      0.5          
    887000  -698.7397       49.973321      220.38273      0.5          
    888000  -741.05712      14.945412      221.44808      0.5          
    889000  -775.89967      387.46409      219.50844      0.5          
    890000  -755.19206     -49.026937      218.24915      0.5          
    891000  -704.93646      96.752658      221.39421      0.5          
    892000  -756.86102     -13.723189      218.92581      0.5          
    893000  -731.47305     -35.164181      220.60293      0.5          
    894000  -722.30569      22.892276      219.23548      0.5          
    895000  -787.60869      157.8254       216.66708      0.5          
    896000  -771.4192      -83.982944      217.04893      0.5          
    897000  -607.71691      28.046191      223.26071      0.5          
    898000  -681.30178     -11.463124      220.11037      0.5          
    899000  -667.96043      25.412126      220.51388      0.5          
    900000  -654.54122      73.359997      221.01065      0.5          
    901000  -660.93639     -199.42071      221.18799      0.5          
    902000  -614.46235     -145.941        219.52574      0.5          
    903000  -636.33392      95.268933      216.57322      0.5          
    904000  -673.25188      30.936073      218.27309      0.5          
    905000  -616.49881     -113.51754      221.95139      0.5          
    906000  -630.45753      65.317497      218.14867      0.5          
    907000  -590.84867     -95.189915      220.64778      0.5          
    908000  -644.62059     -65.825637      218.41585      0.5          
    909000  -624.73422     -140.32821      218.50696      0.5          
    910000  -574.92961      57.975912      222.28446      0.5          
    911000  -608.88781      119.03678      222.98275      0.5          
    912000  -661.14462     -185.16585      218.40869      0.5          
    913000  -618.44799      11.329034      222.13962      0.5          
    914000  -624.53029      63.336852      224.42953      0.5          
    915000  -630.11501     -217.19966      220.83762      0.5          
    916000  -677.89444     -46.220495      221.82247      0.5          
    917000  -708.5788      -61.497074      220.1581       0.5          
    918000  -756.36931     -357.30939      217.89398      0.5          
    919000  -641.98639     -27.538655      222.01334      0.5          
    920000  -723.90911      47.949523      218.22148      0.5          
    921000  -618.88301     -68.781543      220.53346      0.5          
    922000  -575.33332     -118.63521      222.52227      0.5          
    923000  -692.25044     -18.58765       218.72196      0.5          
    924000  -705.5544      -10.371262      217.49558      0.5          
    925000  -718.61972      129.09908      218.30508      0.5          
    926000  -659.67847      170.70755      223.5282       0.5          
    927000  -767.40587     -154.0709       219.20226      0.5          
    928000  -654.47575      7.7270989      222.76401      0.5          
    929000  -704.73561     -186.24636      220.92365      0.5          
    930000  -819.89173     -1.3241491      218.88457      0.5          
    931000  -779.13492      54.347157      217.31413      0.5          
    932000  -743.28683     -41.13482       219.69906      0.5          
    933000  -726.50192     -340.68307      218.97364      0.5          
    934000  -780.07463     -119.20919      221.9939       0.5          
    935000  -826.7583       169.58137      217.19216      0.5          
    936000  -721.30609     -276.6917       220.68758      0.5          
    937000  -777.81117     -38.556393      217.63805      0.5          
    938000  -715.50263      333.9377       220.96754      0.5          
    939000  -741.25479     -44.605442      217.32892      0.5          
    940000  -744.12507     -299.92058      220.59839      0.5          
    941000  -809.11487     -77.471466      215.09578      0.5          
    942000  -726.75767      336.05164      216.65564      0.5          
    943000  -740.19732     -33.330584      221.93398      0.5          
    944000  -682.70873     -275.31612      221.67383      0.5          
    945000  -643.12473      172.18826      219.04134      0.5          
    946000  -605.73056      120.75962      221.85112      0.5          
    947000  -670.15081     -257.46267      219.34174      0.5          
    948000  -628.29782     -186.27862      219.32765      0.5          
    949000  -648.87974      155.11041      223.27386      0.5          
    950000  -712.58622     -154.91543      218.42505      0.5          
    951000  -614.20599     -24.143036      221.6337       0.5          
    952000  -544.45619     -238.95838      221.54004      0.5          
    953000  -601.10437      203.45436      223.37096      0.5          
    954000  -700.82568      42.216656      220.07239      0.5          
    955000  -702.87788     -31.513119      219.06821      0.5          
    956000  -673.84268      162.07968      220.54116      0.5          
    957000  -697.53083     -198.8737       219.36591      0.5          
    958000  -685.37275      80.449585      221.0844       0.5          
    959000  -704.86531      143.44257      222.31096      0.5          
    960000  -680.96748     -23.965521      220.23994      0.5          
    961000  -618.70212      15.326163      223.64368      0.5          
    962000  -702.38155      164.63385      219.29723      0.5          
    963000  -698.09255     -112.10535      219.72503      0.5          
    964000  -653.02654      65.410145      219.20996      0.5          
    965000  -723.77168     -131.52891      220.98705      0.5          
    966000  -783.34901      48.207672      217.61641      0.5          
    967000  -640.96224      92.160216      221.79763      0.5          
    968000  -624.8105      -226.69         222.70944      0.5          
    969000  -622.64412      130.1881       223.10894      0.5          
    970000  -608.49313      20.18547       221.01967      0.5          
    971000  -698.43822     -49.294824      220.03393      0.5          
    972000  -691.94523     -132.44708      220.64233      0.5          
    973000  -768.47239      182.007        219.88608      0.5          
    974000  -832.03995      191.19214      216.60278      0.5          
    975000  -721.29859     -30.753277      216.97187      0.5          
    976000  -583.30416     -101.0638       224.00723      0.5          
    977000  -738.96348      87.191645      220.64749      0.5          
    978000  -786.91113      105.4168       219.23581      0.5          
    979000  -690.87331      275.33071      222.45564      0.5          
    980000  -708.07927     -169.08785      219.17631      0.5          
    981000  -641.51877     -300.12514      221.28967      0.5          
    982000  -689.25176      8.5255074      222.71034      0.5          
    983000  -685.89268      84.979954      217.93198      0.5          
    984000  -727.08256      101.06547      219.70401      0.5          
    985000  -664.93979      57.920864      221.86         0.5          
    986000  -613.82408     -26.685958      220.66226      0.5          
    987000  -587.23677      36.000025      222.59825      0.5          
    988000  -714.81438     -262.91122      216.04389      0.5          
    989000  -754.97699      89.48021       218.24371      0.5          
    990000  -697.59204     -5.2501092      219.40844      0.5          
    991000  -566.23048      98.103831      223.45761      0.5          
    992000  -621.77687     -52.189979      220.82127      0.5          
    993000  -704.64174     -364.106        218.94371      0.5          
    994000  -638.7498      -158.08374      222.116        0.5          
    995000  -691.808       -302.46044      220.22008      0.5          
    996000  -691.83943     -177.71519      219.80416      0.5          
    997000  -836.30554      118.74173      216.93752      0.5          
    998000  -651.0309       61.624863      220.85757      0.5          
    999000  -708.32705      63.94237       220.14384      0.5          
   1000000  -691.47606     -120.83803      222.07695      0.5          
   1001000  -750.22932     -336.91312      219.38719      0.5          
   1002000  -768.03935      47.172778      220.72867      0.5          
   1003000  -760.07007     -149.63395      217.85907      0.5          
   1004000  -741.35797      173.29896      218.86932      0.5          
   1005000  -661.45107      227.36769      222.61058      0.5          
   1006000  -696.805       -22.929114      222.24728      0.5          
   1007000  -688.89544      62.141705      224.14208      0.5          
   1008000  -730.26599      112.42134      219.71458      0.5          
   1009000  -810.44289      136.13988      216.64589      0.5          
   1010000  -625.91547      66.40376       220.92526      0.5          
   1011000  -848.04781     -85.94984       212.34791      0.5          
   1012000  -726.04939      226.83494      221.60778      0.5          
   1013000  -686.27995     -251.2585       220.63553      0.5          
   1014000  -656.45537      74.817301      220.85106      0.5          
   1015000  -791.52167      184.51229      214.48656      0.5          
   1016000  -544.57637     -82.941948      223.88283      0.5          
   1017000  -701.09146      210.91607      220.5609       0.5          
   1018000  -749.94998     -86.627125      218.68682      0.5          
   1019000  -800.75466      48.358367      217.39391      0.5          
   1020000  -631.95987      205.7705       224.49596      0.5          
   1021000  -696.42982      58.753893      222.02529      0.5          
   1022000  -685.05945     -25.412034      218.40698      0.5          
   1023000  -736.56769     -151.04026      214.87077      0.5          
   1024000  -630.80025      9.7342581      221.19796      0.5          
   1025000  -628.46938     -259.34853      220.72554      0.5          
   1026000  -740.89711     -345.71522      217.8163       0.5          
   1027000  -633.58248     -241.43066      216.66793      0.5          
[...]
   3748000  -495.56296     -143.63502      222.28325      0.5          
   3749000  -495.85807     -204.0539       220.9292       0.5          
   3750000  -495.77713      65.680981      219.91327      0.5          
   3751000  -495.61274      85.766064      218.23853      0.5          
   3752000  -495.39026      42.702292      220.78877      0.5          
   3753000  -495.50199      132.45322      220.65387      0.5          
   3754000  -495.35894      99.167021      220.28779      0.5          
   3755000  -495.33081      141.52818      220.16449      0.5          
   3756000  -495.38362     -132.53526      217.7596       0.5          
   3757000  -495.30544      35.084959      219.72001      0.5          
   3758000  -495.50131     -31.902765      219.67698      0.5          
   3759000  -495.33432     -1.1410659      222.01355      0.5          
   3760000  -495.22326      208.49968      217.68794      0.5          
   3761000  -495.42189      282.24672      219.06273      0.5          
   3762000  -495.09166     -8.9351127      221.17934      0.5          
   3763000  -494.93878     -266.80575      220.10364      0.5          
   3764000  -494.88381      77.785864      219.85886      0.5          
   3765000  -495.19433     -21.32351       218.05738      0.5          
   3766000  -495.1155       31.065059      219.02402      0.5          
   3767000  -494.95966     -84.571328      220.93769      0.5          
   3768000  -494.99675     -27.79176       220.82669      0.5          
   3769000  -494.93768      162.13116      221.32439      0.5          
   3770000  -494.98678      66.90132       220.9668       0.5          
   3771000  -494.56804     -46.894468      220.89816      0.5          
   3772000  -494.57039     -46.536096      219.81247      0.5          
   3773000  -494.5448      -26.232071      220.23858      0.5          
   3774000  -494.61978      33.870929      216.82042      0.5          
   3775000  -494.79039     -210.24816      223.14293      0.5          
   3776000  -494.65566      95.424355      218.45137      0.5          
   3777000  -494.56342      116.30787      217.247        0.5          
   3778000  -494.77665      70.147428      218.89895      0.5          
   3779000  -494.97513      34.127898      220.54264      0.5          
   3780000  -494.84125      44.997878      218.65223      0.5          
   3781000  -495.02869     -338.8025       217.77858      0.5          
   3782000  -494.87052     -143.02022      216.895        0.5          
   3783000  -494.80709     -232.12956      217.97101      0.5          
   3784000  -494.98637      100.99522      218.90935      0.5          
   3785000  -494.87315      25.663609      218.2161       0.5          
   3786000  -494.75607      74.769632      219.79988      0.5          
   3787000  -494.19835     -216.11491      217.36202      0.5          
   3788000  -494.47285      155.92889      220.89459      0.5          
   3789000  -494.48786     -121.29928      221.03492      0.5          
   3790000  -494.34587     -217.30697      223.85532      0.5          
   3791000  -494.25961      38.72716       222.02921      0.5          
   3792000  -494.36786      22.030887      219.41062      0.5          
   3793000  -494.22852     -160.12643      222.15372      0.5          
   3794000  -494.45514     -81.981403      220.16489      0.5          
   3795000  -494.09429     -37.283114      221.31504      0.5          
   3796000  -494.06873      49.476733      218.60565      0.5          
   3797000  -494.24905      54.335005      221.52122      0.5          
   3798000  -494.33825     -51.536469      222.0219       0.5          
   3799000  -494.26224      143.9186       220.31842      0.5          
   3800000  -494.41537      115.5317       221.51422      0.5          
   3801000  -494.17163     -218.19595      220.35313      0.5          
   3802000  -494.08338      28.732644      219.37916      0.5          
   3803000  -494.12979      346.13589      219.97389      0.5          
   3804000  -494.23654     -9.5618266      222.20695      0.5          
   3805000  -493.94637      160.05119      219.84155      0.5          
   3806000  -494.11176      93.331308      221.01261      0.5          
   3807000  -493.97643     -148.6785       220.66552      0.5          
   3808000  -493.99282      191.90834      218.99998      0.5          
   3809000  -493.73762      79.270403      219.6659       0.5          
   3810000  -493.78393      95.578412      220.99214      0.5          
   3811000  -493.86879     -156.26173      218.1126       0.5          
   3812000  -493.74959      9.0152281      220.69351      0.5          
   3813000  -493.72021      43.191434      220.76456      0.5          
   3814000  -493.54438      77.883899      221.71091      0.5          
   3815000  -493.75487     -48.875729      218.73821      0.5          
   3816000  -493.92717     -112.44142      219.97104      0.5          
   3817000  -493.78669     -30.035401      218.88674      0.5          
   3818000  -493.78484     -49.800081      219.04996      0.5          
   3819000  -493.49207      202.05873      218.17144      0.5          
   3820000  -493.84587      39.509361      220.94841      0.5          
   3821000  -493.60915     -184.13506      220.1282       0.5          
   3822000  -493.47078      55.809129      217.90567      0.5          
   3823000  -493.74128     -42.935463      220.80733      0.5          
   3824000  -493.86561     -25.527032      220.09014      0.5          
   3825000  -493.72775     -108.10496      220.40614      0.5          
   3826000  -493.57828     -198.33864      221.70929      0.5          
   3827000  -493.61554      76.644605      223.87509      0.5          
   3828000  -493.77779     -1.2963794      221.34859      0.5          
   3829000  -493.87254      19.072487      221.68627      0.5          
   3830000  -493.87188     -38.14397       219.41925      0.5          
   3831000  -493.55451      166.56942      222.29891      0.5          
   3832000  -493.54754      151.72213      220.69324      0.5          
   3833000  -494.00632     -73.391338      221.93625      0.5          
   3834000  -493.83009      117.55747      224.82186      0.5          
   3835000  -493.94632      85.795107      221.28645      0.5          
   3836000  -493.94663      87.693537      223.75782      0.5          
   3837000  -494.3339       255.86773      224.09279      0.5          
   3838000  -494.40525      105.06847      223.11853      0.5          
   3839000  -494.05637     -6.5448535      221.38861      0.5          
   3840000  -494.22886      164.69973      222.9307       0.5          
   3841000  -494.29183      76.954213      221.47868      0.5          
   3842000  -494.2649       11.969591      221.59632      0.5          
   3843000  -494.00962     -94.803422      220.28561      0.5          
   3844000  -494.0634       66.36718       222.07427      0.5          
   3845000  -494.38435      50.496885      221.01155      0.5          
   3846000  -494.2671       216.62133      221.46434      0.5          
   3847000  -493.97454     -79.071134      218.53996      0.5          
   3848000  -494.06323     -301.71009      221.73009      0.5          
   3849000  -493.90599     -77.956165      218.81056      0.5          
   3850000  -494.0823       337.55368      220.82035      0.5          
   3851000  -493.89593     -75.105975      218.95903      0.5          
   3852000  -493.78323     -304.454        220.49341      0.5          
   3853000  -493.88579      83.281174      219.88862      0.5          
   3854000  -493.96445      226.58958      219.44529      0.5          
   3855000  -494.3043       145.97741      220.16318      0.5          
   3856000  -494.26734     -48.064657      221.81026      0.5          
   3857000  -494.16604     -49.221928      219.89716      0.5          
   3858000  -493.95975     -153.44212      219.37623      0.5          
   3859000  -494.21691      50.352969      220.30722      0.5          
   3860000  -493.82926      19.523922      220.02101      0.5          
   3861000  -493.939        48.657533      221.35291      0.5          
   3862000  -493.98636     -236.79814      219.52634      0.5          
   3863000  -494.07994     -180.72142      223.75321      0.5          
   3864000  -493.8529       39.484183      221.8336       0.5          
   3865000  -493.70724     -3.4401095      221.14084      0.5          
   3866000  -493.48525      60.670335      219.95274      0.5          
   3867000  -493.9454       275.51574      225.39925      0.5          
   3868000  -493.72177     -202.0214       222.25863      0.5          
   3869000  -493.76207     -238.20641      224.82122      0.5          
   3870000  -493.64535     -129.94178      224.71158      0.5          
   3871000  -493.49286     -61.86297       221.66157      0.5          
   3872000  -493.83096     -54.980115      224.9907       0.5          
   3873000  -493.60206      208.5514       223.59127      0.5          
   3874000  -493.28931      118.76489      218.91238      0.5          
   3875000  -493.64972     -140.88073      221.39845      0.5          
   3876000  -493.84076     -184.08078      221.87702      0.5          
   3877000  -493.84236      226.06947      223.1247       0.5          
   3878000  -493.40441      83.294117      217.83658      0.5          
   3879000  -493.51306     -29.673725      222.43431      0.5          
   3880000  -493.88272      167.67869      221.12657      0.5          
   3881000  -494.11579      168.4183       225.42096      0.5          
   3882000  -493.80628     -165.28256      222.41457      0.5          
   3883000  -493.51771      25.147173      220.91488      0.5          
   3884000  -493.9163       14.154116      220.70961      0.5          
   3885000  -494.09887      49.970714      222.69278      0.5          
   3886000  -493.75389      38.333667      221.23491      0.5          
   3887000  -493.64862     -95.547449      219.32255      0.5          
   3888000  -493.47303      1.2316437      219.81172      0.5          
   3889000  -493.7501       28.363654      218.27591      0.5          
   3890000  -493.61509      190.9384       218.82014      0.5          
   3891000  -493.54526      68.266335      220.27273      0.5          
   3892000  -493.70927     -160.73026      219.93546      0.5          
   3893000  -493.93856     -1.8660233      221.48597      0.5          
   3894000  -493.81156     -43.785215      222.75262      0.5          
   3895000  -493.54339      32.056492      216.92431      0.5          
   3896000  -493.47049     -6.6413823      217.82107      0.5          
   3897000  -493.754        40.612859      217.75629      0.5          
   3898000  -494.16995      2.5302775      221.03852      0.5          
   3899000  -493.84427     -57.35119       219.15292      0.5          
   3900000  -494.00692      47.086762      220.44604      0.5          
   3901000  -493.71126     -9.473718       218.28552      0.5          
   3902000  -493.96202     -160.69597      220.04263      0.5          
   3903000  -493.89128      81.075313      221.46809      0.5          
   3904000  -493.67799      21.315045      220.27703      0.5          
   3905000  -493.58712      245.50839      220.00449      0.5          
   3906000  -493.67116     -24.591135      220.92184      0.5          
   3907000  -493.81734     -174.33172      219.47625      0.5          
   3908000  -493.75696      17.998733      219.23755      0.5          
   3909000  -493.84167      2.3343323      221.66958      0.5          
   3910000  -493.54696     -117.02508      216.97478      0.5          
   3911000  -493.55828      52.268766      218.32169      0.5          
   3912000  -493.46936     -73.139915      217.31977      0.5          
   3913000  -493.42619      158.66199      219.40273      0.5          
   3914000  -493.74367      77.700693      221.16781      0.5          
   3915000  -493.43901      37.56331       220.98877      0.5          
   3916000  -493.50275     -64.875111      219.64341      0.5          
   3917000  -493.60877      139.4033       218.11624      0.5          
   3918000  -493.77741      62.37004       222.3573       0.5          
   3919000  -493.54199     -46.397466      220.24593      0.5          
   3920000  -493.74432      1.8214066      218.6062       0.5          
   3921000  -493.45558      100.05092      219.04416      0.5          
   3922000  -493.58162     -60.504262      217.47476      0.5          
   3923000  -493.25094     -189.35835      221.47026      0.5          
   3924000  -493.18792     -41.462201      218.97243      0.5          
   3925000  -493.19836     -164.88686      220.40353      0.5          
   3926000  -493.26586     -189.61085      220.10082      0.5          
   3927000  -493.30128      144.93455      219.90853      0.5          
   3928000  -493.19498      280.08558      221.35484      0.5          
   3929000  -493.13904     -51.552451      220.60863      0.5          
   3930000  -493.11429     -53.352305      220.67068      0.5          
   3931000  -493.18324     -218.73307      219.47741      0.5          
   3932000  -493.17004     -58.219673      223.50167      0.5          
   3933000  -493.0353      -49.95712       220.00462      0.5          
   3934000  -492.98176      160.66895      218.3469       0.5          
   3935000  -493.5123       63.154292      220.70538      0.5          
   3936000  -493.37123      79.03003       222.94571      0.5          
   3937000  -493.49544     -124.0447       220.22713      0.5          
   3938000  -493.4447      -71.13463       218.40853      0.5          
   3939000  -493.53256      238.97301      221.55451      0.5          
   3940000  -493.4676       108.67657      220.89658      0.5          
   3941000  -493.23173      4.0836814      219.37222      0.5          
   3942000  -493.24205      119.48435      219.55469      0.5          
   3943000  -493.47174     -104.7843       222.43976      0.5          
   3944000  -493.56041      29.050763      222.54104      0.5          
   3945000  -493.35403      83.947853      219.41622      0.5          
   3946000  -493.36865      193.54272      217.53009      0.5          
   3947000  -493.18076     -198.10553      218.43166      0.5          
   3948000  -493.30656     -195.71649      219.02171      0.5          
   3949000  -493.49423      314.52635      220.81376      0.5          
   3950000  -493.53759      126.28153      221.38116      0.5          
   3951000  -493.51283     -152.84981      219.86337      0.5          
   3952000  -493.72081     -117.16402      219.32368      0.5          
   3953000  -493.81452      64.657412      220.14232      0.5          
   3954000  -493.51586     -22.473043      218.76809      0.5          
   3955000  -493.43986     -0.20747479     219.17551      0.5          
   3956000  -493.25733     -110.63251      218.91236      0.5          
   3957000  -492.92902     -70.899007      218.74371      0.5          
   3958000  -493.0732       219.86686      219.28479      0.5          
   3959000  -493.19666     -341.534        217.45022      0.5          
   3960000  -493.15432      162.52743      218.55375      0.5          
   3961000  -492.95989      68.770017      217.4025       0.5          
   3962000  -493.02422     -104.90607      218.7667       0.5          
   3963000  -493.29768     -25.585267      219.24582      0.5          
   3964000  -492.88899     -56.722187      218.93877      0.5          
   3965000  -493.02156      0.24607499     219.14558      0.5          
   3966000  -493.09184      134.84199      220.49249      0.5          
   3967000  -492.90995     -85.806712      221.77912      0.5          
   3968000  -493.185       -124.50394      220.91517      0.5          
   3969000  -493.00587      207.34445      220.65505      0.5          
   3970000  -493.01834     -3.3016805      218.35341      0.5          
   3971000  -492.92117     -2.5470531      222.01526      0.5          
   3972000  -492.90308     -0.2474132      220.07623      0.5          
   3973000  -493.10321     -119.854        221.83678      0.5          
   3974000  -493.18931     -72.802826      221.65399      0.5          
   3975000  -492.97593      20.053634      219.64834      0.5          
   3976000  -492.91482     -117.31853      220.66981      0.5          
   3977000  -493.09311      144.57629      220.79496      0.5          
   3978000  -492.82798     -109.66454      220.82114      0.5          
   3979000  -492.57474      24.930548      219.94132      0.5          
   3980000  -492.48968     -60.863129      220.39394      0.5          
   3981000  -492.65736     -7.796349       219.4467       0.5          
   3982000  -492.9075      -142.77161      220.87701      0.5          
   3983000  -492.79452     -58.894291      218.86447      0.5          
   3984000  -492.46853     -155.54742      216.15134      0.5          
   3985000  -492.3789       218.27498      217.11313      0.5          
   3986000  -492.68847      71.423083      219.7083       0.5          
   3987000  -492.73508      137.45902      220.09209      0.5          
   3988000  -492.59884      56.413209      219.31112      0.5          
   3989000  -492.30594     -97.863111      217.75607      0.5          
   3990000  -492.41593     -218.6444       219.80468      0.5          
   3991000  -492.8345       97.449382      221.30325      0.5          
   3992000  -492.9394       212.19327      218.39856      0.5          
   3993000  -492.52615      48.83405       220.6388       0.5          
   3994000  -492.0029       155.90972      218.11493      0.5          
   3995000  -492.15952      156.15849      217.96847      0.5          
   3996000  -492.72221      119.83685      220.19341      0.5          
   3997000  -492.53865     -341.19763      221.51938      0.5          
   3998000  -492.28063     -13.476885      218.43506      0.5          
   3999000  -492.17192      159.15031      220.80791      0.5          
   4000000  -492.35018     -66.172201      221.29875      0.5          
Loop time of 5172.95 on 28 procs for 2000000 steps with 7050 atoms

Performance: 16.702 ns/day, 1.437 hours/ns, 386.626 timesteps/s, 2.726 Matom-step/s
99.4% CPU use with 28 MPI tasks x 1 OpenMP threads

MPI task timing breakdown:
Section |  min time  |  avg time  |  max time  |%varavg| %total
---------------------------------------------------------------
Pair    | 1004.9     | 2898.1     | 3477.9     |1444.6 | 56.02
Bond    | 13.723     | 15.964     | 18.121     |  22.1 |  0.31
Kspace  | 1156.7     | 1804.3     | 3742.4     |1879.7 | 34.88
Neigh   | 31.466     | 31.682     | 31.97      |   2.2 |  0.61
Comm    | 255.52     | 337.11     | 408.76     | 283.6 |  6.52
Output  | 0.12365    | 0.13759    | 0.46766    |  17.1 |  0.00
Modify  | 67.338     | 74.449     | 83.804     |  61.1 |  1.44
Other   |            | 11.14      |            |       |  0.22

Nlocal:        251.786 ave         320 max         160 min
Histogram: 1 2 0 1 2 10 7 1 0 4
Nghost:        5345.64 ave        6229 max        3501 min
Histogram: 4 0 1 3 0 4 0 0 4 12
Neighs:         107686 ave      135155 max       28332 min
Histogram: 4 0 0 0 0 0 1 6 8 9

Total # of neighbors = 3015210
Ave neighs/atom = 427.68936
Ave special neighs/atom = 2
Neighbor list builds = 8335
Dangerous builds = 0
System init for write_data ...
PPPM initialization ...
  using 12-bit tables for long-range coulomb (src/kspace.cpp:342)
  G vector (1/distance) = 0.20169663
  grid = 24 24 80
  stencil order = 5
  estimated absolute RMS force accuracy = 0.00286774
  estimated relative force accuracy = 8.6361139e-06
  using single precision FFTW3
  3d grid and FFT values/proc = 12996 4176
Generated 1 of 1 mixed pair_coeff terms from arithmetic mixing rule
Last active /omp style is kspace_style pppm/omp
