LAMMPS data file via write_data, version 29 Aug 2024, timestep = 0, units = real

7050 atoms
2 atom types
4700 bonds
1 bond types
2350 angles
1 angle types

0 40 xlo xhi
0 40 ylo yhi
0 240 zlo zhi

Masses

1 12.0107
2 15.9994

Pair Coeffs # lj/cut/coul/long/omp

1 0.0536545 2.8
2 0.156989 3.05

Bond Coeffs # harmonic/omp

1 1028.27 1.16

Angle Coeffs # harmonic/omp

1 55.96 180

Atoms # full

6904 2302 1 0.7 27.69081297118812 0.8969649239032397 7.667271908294718 0 0 0
6905 2302 2 -0.35 28.606115732278994 0.3475549173210659 8.121440800314451 0 0 0
6906 2302 2 -0.35 26.776052962175118 1.449421900679328 7.214845187687267 0 0 0
6919 2307 1 0.7 24.794707045731645 0.5181746335808688 5.084415905350667 0 0 0
6921 2307 2 -0.35 24.12586338418504 1.4589901359856645 4.969502942852516 0 0 0
6907 2303 1 0.7 13.588802087312326 28.421429477511793 5.488269458862682 0 0 0
6908 2303 2 -0.35 14.672693345288138 28.453855930954685 5.075373616893937 0 0 0
6909 2303 2 -0.35 12.505154079554039 28.391280122486354 5.902833768148338 0 0 0
6955 2319 1 0.7 13.849861930619516 28.00436060335655 1.9730229224443339 0 0 0
6956 2319 2 -0.35 14.47278534305946 28.74509688069627 1.3334453098089418 0 0 0
6957 2319 2 -0.35 13.228427759655212 27.257363690494653 2.607925102525263 0 0 0
6901 2301 1 0.7 11.50696792023232 30.83479283781563 3.964811449943222 0 0 0
6902 2301 2 -0.35 12.210741307745943 30.17192716435475 3.3227930683231546 0 0 0
6903 2301 2 -0.35 10.805860508406363 31.499711151584595 4.607037576709877 0 0 0
6970 2324 1 0.7 12.829076266675496 32.02502761771458 7.157842215539451 0 0 0
6972 2324 2 -0.35 13.35113661660649 31.370983548710967 6.3532381543274346 0 0 0
6971 2324 2 -0.35 12.310349595304155 32.67854561496496 7.963274511136404 0 0 0
6920 2307 2 -0.35 25.459379728357394 39.57301943591495 5.19312264763097 0 -1 0
6922 2308 1 0.7 12.433415311744877 16.792334629948165 9.628949549796337 0 0 0
6923 2308 2 -0.35 11.734460018066523 15.878197331096162 9.775338794538218 0 0 0
6924 2308 2 -0.35 13.132395369191984 17.706447434118957 9.482665390347124 0 0 0
6954 2318 2 -0.35 29.772708305139066 37.807428305621926 9.72003192278589 0 0 0
6940 2314 1 0.7 33.87780582161555 38.633104740987136 11.210441609430235 0 0 0
6941 2314 2 -0.35 33.11052475394629 37.77282631547876 11.344024294388388 0 0 0
6942 2314 2 -0.35 34.64776558163315 39.49107075175835 11.080226138476029 0 0 0
6952 2318 1 0.7 30.580080214128657 38.63005046406741 9.588856796191642 0 0 0
6953 2318 2 -0.35 31.393809505275215 39.448382929133864 9.462924120692666 0 0 0
6934 2312 1 0.7 19.891724988454374 16.526224443365187 21.473854869994486 0 0 0
6936 2312 2 -0.35 19.4491690292911 17.385298232465683 22.115528117786422 0 0 0
6935 2312 2 -0.35 20.334196549114946 15.667220921835659 20.83204584604428 0 0 0
6949 2317 1 0.7 18.380693575044635 5.529026575940786 33.00811555901084 0 0 0
6950 2317 2 -0.35 17.904760851423113 6.500506738143477 32.58849570309816 0 0 0
6951 2317 2 -0.35 18.85748414562692 4.5582263590988035 33.42708879141857 0 0 0
6910 2304 1 0.7 16.144453738505632 8.808032043937683 31.775985445914667 0 0 0
6911 2304 2 -0.35 15.260050128873226 8.287565773460992 32.31762462020759 0 0 0
6912 2304 2 -0.35 17.021240940344672 9.337544489472602 31.23093977973074 0 0 0
6967 2323 1 0.7 15.311492543674317 25.628261896603146 34.02493714531718 0 0 0
6969 2323 2 -0.35 16.25045343066504 25.9972488423501 33.452455604538805 0 0 0
6898 2300 1 0.7 37.15552575591835 6.538043502264609 35.14472640184491 0 0 0
6899 2300 2 -0.35 36.36988992047225 5.918785541264395 34.55741724706075 0 0 0
6900 2300 2 -0.35 37.941325584973505 7.157752169079468 35.73129633685106 0 0 0
6933 2311 2 -0.35 10.528602470961562 19.916987410654517 37.72692973137032 0 0 0
6937 2313 1 0.7 9.06127508016103 23.944417373086566 37.02768962287184 0 0 0
6938 2313 2 -0.35 8.617310550172002 24.911382526818187 36.5659184546134 0 0 0
6939 2313 2 -0.35 9.504197096732835 22.976653440128217 37.48991019641688 0 0 0
6968 2323 2 -0.35 14.372491542534124 25.25921074183579 34.597565882029635 0 0 0
6931 2311 1 0.7 10.680146515242928 20.494089467091417 38.722069254397276 0 0 0
6932 2311 2 -0.35 10.836603361814957 21.060239459260213 39.72275083969313 0 0 0
6961 2321 1 0.7 7.609010747787226 1.0060528230139625 46.67294243042875 0 0 0
6962 2321 2 -0.35 6.603968366959031 0.7829744592587183 47.20721898821611 0 0 0
6963 2321 2 -0.35 8.614382471759649 1.2298398066403136 46.13861723143178 0 0 0
6927 2309 2 -0.35 10.839781185211189 0.893673067784425 43.82966320261933 0 0 0
6925 2309 1 0.7 11.171834422617508 1.6830820064946101 44.61257051885952 0 0 0
6926 2309 2 -0.35 11.51492499803514 2.4736783410762317 45.38944613126561 0 0 0
6943 2315 1 0.7 1.2720260030319266 16.504438411821603 47.50102349725927 0 0 0
6944 2315 2 -0.35 1.3110270837011235 17.004534074320734 46.455089495763644 0 0 0
6945 2315 2 -0.35 1.2330047396492585 16.00433831258916 48.54695585405139 0 0 0
6895 2299 1 0.7 25.95524588597557 16.200452775671973 68.22949837931594 0 0 0
6897 2299 2 -0.35 26.37210626678413 17.217510242782392 67.85875873324167 0 0 0
6916 2306 1 0.7 18.713085094740475 21.98936570304577 61.07468522051512 0 0 0
6917 2306 2 -0.35 18.393105836362064 22.916436557182053 61.694173456737715 0 0 0
6918 2306 2 -0.35 19.03248806913902 21.06206799683127 60.45525761076297 0 0 0
6946 2316 1 0.7 29.79025929077698 27.871421733379094 67.02348542511118 0 0 0
6948 2316 2 -0.35 29.28368151538425 27.72928510763463 65.98905295207256 0 0 0
6964 2322 1 0.7 30.81301809453583 25.35255419481903 64.50560706616726 0 0 0
6965 2322 2 -0.35 31.321571199325795 25.498212392193203 65.53858162869919 0 0 0
6966 2322 2 -0.35 30.30701610492532 25.204679020468042 63.472442919665234 0 0 0
6947 2316 2 -0.35 30.294229933152625 28.016146125246497 68.05808704841945 0 0 0
6896 2299 2 -0.35 25.5382588553573 15.183465181939155 68.60023864358587 0 0 0
247 83 1 0.7 5.073017686183206 6.884975017381892 82.90594695640512 0 0 0
248 83 2 -0.35 5.186447972800224 5.732403274363075 82.8381297163832 0 0 0
249 83 2 -0.35 4.964227455004409 8.038939471422191 82.96032395357992 0 0 0
868 290 1 0.7 3.8021880889297592 3.455517966450754 84.24415030799182 0 0 0
869 290 2 -0.35 2.7899190061489976 3.432465155653901 83.67658257062213 0 0 0
870 290 2 -0.35 4.813744504049928 3.475467647133463 84.81373278692918 0 0 0
5926 1976 1 0.7 0.6345030337426818 4.900986821832586 85.56800440327657 0 0 0
6697 2233 1 0.7 8.48469597677476 7.668159260351991 85.18679335854466 0 0 0
6698 2233 2 -0.35 7.392133204873501 7.284560494348553 85.27155218815588 0 0 0
6699 2233 2 -0.35 9.577434485946151 8.046568955570132 85.09021814697695 0 0 0
1579 527 1 0.7 1.1237949999485255 7.292906027333726 83.13921104867924 1 0 0
1581 527 2 -0.35 2.0812007145627507 6.6961518157772195 83.41415278485704 1 0 0
5873 1958 2 -0.35 0.1267645043652535 2.043322685437926 85.03765366266371 0 1 0
3642 1214 2 -0.35 7.919623340000849 3.0694059172216397 85.64797016906415 0 0 0
5872 1958 1 0.7 0.40718753892619747 0.918503694403145 84.98356753000647 0 1 0
1580 527 2 -0.35 0.16437279453040213 7.881750515857551 82.85778086792924 1 0 0
6928 2310 1 0.7 3.619303632323073 9.831608884255267 84.8565610550249 0 0 0
6929 2310 2 -0.35 2.5617703095329047 9.679215716137886 84.40229785592535 0 0 0
725 242 2 -0.35 11.718384697205188 1.363487387668993 84.59306018328179 0 0 0
724 242 1 0.7 12.590176977433638 1.3442456263754083 85.35883615334537 0 0 0
5869 1957 1 0.7 12.801932667195398 4.635401567802833 84.29894214938851 0 0 0
5870 1957 2 -0.35 11.95725717831215 5.411282975641477 84.476330947706 0 0 0
5871 1957 2 -0.35 13.63807073926417 3.849631078882428 84.12330990153089 0 0 0
6091 2031 1 0.7 16.325433749382654 2.626178180376327 84.76666853056265 0 0 0
6092 2031 2 -0.35 15.972946675983058 1.668852059178967 84.21364588445581 0 0 0
6093 2031 2 -0.35 16.696843244234852 3.5792531117380757 85.31575767565329 0 0 0
6396 2132 2 -0.35 14.917792855140503 6.3499814982990035 85.38812091045206 0 0 0
6802 2268 1 0.7 19.56760563367995 4.729983566234209 84.2924775105159 0 0 0
6804 2268 2 -0.35 19.001028769516065 5.7390967525178525 84.20125132838355 0 0 0
2635 879 1 0.7 19.696414848007826 8.686653475044377 84.24883989917471 0 0 0
1758 586 2 -0.35 12.587894979909166 8.68101918698265 85.1131742326282 0 0 0
5372 1791 2 -0.35 15.609165004655171 9.488659358050613 85.11015508605834 0 0 0
2636 879 2 -0.35 18.57208295284732 8.884354505829846 84.45560625583872 0 0 0
6803 2268 2 -0.35 20.122241557687612 3.7126278343296404 84.37110200541373 0 0 0
1780 594 1 0.7 25.77662309529285 8.999029198976782 84.748829687598 0 0 0
3913 1305 1 0.7 29.619109204314707 2.5853616777951896 82.26139233235605 0 0 0
3915 1305 2 -0.35 28.785410255370255 3.2311701220230447 82.7472327520472 0 0 0
6958 2320 1 0.7 22.831431777009936 6.397252634526564 83.20561047106499 0 0 0
6959 2320 2 -0.35 23.77785407264619 6.903082985230127 83.64881705857782 0 0 0
6960 2320 2 -0.35 21.887760781879315 5.894085248920395 82.7539018455725 0 0 0
2637 879 2 -0.35 20.824756280162912 8.505101378979857 84.04636270355024 0 0 0
6527 2176 2 -0.35 23.52943185191778 3.5489093101925975 83.97807682224183 0 1 0
650 217 2 -0.35 28.750963314062872 9.301045100444421 84.24247438489513 0 0 0
1781 594 2 -0.35 26.097403157508687 8.08207582727399 85.38481380016175 0 0 0
3634 1212 1 0.7 27.459799720468354 5.775743059094796 83.70348598156764 0 0 0
3635 1212 2 -0.35 26.702532703975297 5.162361143472134 84.33412615055889 0 0 0
3636 1212 2 -0.35 28.214293161829104 6.38940964211295 83.06956485880897 0 0 0
6352 2118 1 0.7 27.55088396167341 2.688247664150752 85.68212257486037 0 0 0
6353 2118 2 -0.35 26.54278229119865 2.1333814394432054 85.52900132599548 0 0 0
649 217 1 0.7 29.782940693440235 8.786609318856454 84.1037637799318 0 0 0
6526 2176 1 0.7 23.102722331052906 2.906910276934407 84.84514138398569 0 1 0
6528 2176 2 -0.35 22.673584736634808 2.2638942047963537 85.71207826095589 0 1 0
1782 594 2 -0.35 25.464980037355218 9.920227437439529 84.11451265053768 0 0 0
5594 1865 2 -0.35 29.0356897979382 0.31096320976652303 84.11492555533333 0 1 0
3914 1305 2 -0.35 30.45197246011667 1.9520328010980288 81.76012917415024 0 0 0
6534 2178 2 -0.35 31.06068857444317 6.681771172569791 81.28400892735917 0 0 0
2865 955 2 -0.35 34.33738272458148 4.574409542381427 82.3169947855524 0 0 0
5928 1976 2 -0.35 39.70468489216062 5.084675368563794 84.89722142995451 -1 0 0
6532 2178 1 0.7 31.20068252891397 5.927644411376888 82.15408436018998 0 0 0
6533 2178 2 -0.35 31.338282108833145 5.158999367740194 83.01392848874067 0 0 0
58 20 1 0.7 36.27011145585975 6.441965949428467 85.56952423029472 0 0 0
60 20 2 -0.35 35.36726419231572 6.504783181057152 84.84324617371564 0 0 0
2863 955 1 0.7 34.240339712906106 4.106927028982067 83.37441266728584 0 0 0
2864 955 2 -0.35 34.13328721897073 3.6443446941784994 84.43403714885329 0 0 0
4960 1654 1 0.7 33.6449635860682 9.063333636203927 84.68274437541132 0 0 0
4961 1654 2 -0.35 34.024531101763834 9.313270170143284 83.61549338100906 0 0 0
3035 1012 2 -0.35 35.99963884948236 1.7348229611201669 82.88775815472907 0 1 0
651 217 2 -0.35 30.81528705897273 8.277059474314852 83.95398413030388 0 0 0
4030 1344 1 0.7 31.429535146361925 3.3902086124892477 85.44965142376041 0 0 0
4031 1344 2 -0.35 31.311900691580703 2.442437281728452 84.78954423206814 0 0 0
3034 1012 1 0.7 36.83396972173411 1.1002178083615635 83.38530144043926 0 1 0
3036 1012 2 -0.35 37.675082168313565 0.46605943847411974 83.87325982072956 0 1 0
6930 2310 2 -0.35 4.679148068861916 9.97978351906128 85.30762693918814 0 0 0
1373 458 2 -0.35 7.834310005849707 18.16571665395653 85.32132125888472 0 0 0
1480 494 1 0.7 7.199701272167801 11.594256372062652 85.64627218210663 0 0 0
1481 494 2 -0.35 6.617658443739999 12.598028071062624 85.63976543362473 0 0 0
1482 494 2 -0.35 7.785475573338374 10.591879740049363 85.64118936655487 0 0 0
5494 1832 1 0.7 4.880395815574864 18.169249190243157 84.8505878422397 0 0 0
5495 1832 2 -0.35 4.980159566600739 17.019055960886547 84.73036863632815 0 0 0
5496 1832 2 -0.35 4.778151701634893 19.32051692403564 84.96030232556626 0 0 0
5371 1791 1 0.7 16.335679361297895 10.1856991779975 85.68556301897607 0 0 0
6566 2189 2 -0.35 10.820521215789489 11.342416348476329 84.26893652026922 0 0 0
664 222 1 0.7 17.34799990625755 13.743950879430907 84.9509944511214 0 0 0
666 222 2 -0.35 17.92564086383951 13.28630883834009 84.05525005342103 0 0 0
679 227 1 0.7 11.575524008742455 18.80237882126564 84.2738318821343 0 0 0
681 227 2 -0.35 12.345914319379302 18.4092203754835 83.50019235462689 0 0 0
3790 1264 1 0.7 13.586740603416336 13.46753780650771 84.90815550937825 0 0 0
3791 1264 2 -0.35 12.732603039829982 14.06776614829468 85.41680171685319 0 0 0
3792 1264 2 -0.35 14.437763134346346 12.862483853388754 84.40093169187608 0 0 0
4966 1656 1 0.7 15.216106259888104 17.287065000784338 84.05148521876342 0 0 0
4967 1656 2 -0.35 14.954112726852832 16.159073593620587 84.13851474325894 0 0 0
4968 1656 2 -0.35 15.482898451660553 18.413358964965564 83.9679903342199 0 0 0
5432 1811 2 -0.35 18.69975802566863 16.45845041662727 85.02036591051076 0 0 0
6565 2189 1 0.7 10.801460892991923 11.017596594804086 85.3827363545498 0 0 0
680 227 2 -0.35 10.800624945913805 19.18645262676949 85.04855180141045 0 0 0
6244 2082 1 0.7 24.52230169109873 12.854764590145967 84.84722346530044 0 0 0
6245 2082 2 -0.35 23.46026216148544 12.46695419821938 84.58594997025313 0 0 0
6246 2082 2 -0.35 25.586042705057075 13.24067474027716 85.10753875525342 0 0 0
1415 472 2 -0.35 28.851733050467384 12.070564495556216 85.6674771338503 0 0 0
1117 373 1 0.7 34.56799047722644 18.31116923692537 84.85160516565861 0 0 0
1118 373 2 -0.35 33.91371956339969 18.14250145850676 83.90856666152722 0 0 0
5605 1869 1 0.7 31.694629896774636 12.538221628910668 84.93053415546873 0 0 0
5606 1869 2 -0.35 31.755940005153057 13.65206403104879 85.25128926465192 0 0 0
5607 1869 2 -0.35 31.635343099229033 11.421761515974257 84.6166341428637 0 0 0
5184 1728 2 -0.35 5.488072470584809 27.505401013715748 85.26442861097584 0 0 0
6445 2149 1 0.7 8.883821245972815 25.327355732021008 85.52396879320457 0 0 0
6447 2149 2 -0.35 9.48280188563139 24.571762897266638 84.87754481502027 0 0 0
6745 2249 1 0.7 4.9193372743549295 24.674691821064876 84.32248162778306 0 0 0
6746 2249 2 -0.35 3.7889022988273466 24.822705899516176 84.10551987371788 0 0 0
6747 2249 2 -0.35 6.051917435662952 24.525007846123792 84.52948968882625 0 0 0
3802 1268 1 0.7 12.117383553161991 22.92071780223538 84.96304742042369 0 0 0
3803 1268 2 -0.35 11.666930549461242 22.16446413686774 84.20696923523685 0 0 0
4276 1426 1 0.7 10.928855458216644 28.734225176026953 85.18243389572241 0 0 0
4277 1426 2 -0.35 10.44165686362547 27.754703373842563 84.79572798994421 0 0 0
5104 1702 1 0.7 18.61114916375395 27.11829112474276 84.75114714994767 0 0 0
5106 1702 2 -0.35 17.56283940454971 27.532610280561684 85.02977013979581 0 0 0
3804 1268 2 -0.35 12.58388494335377 23.66932862049187 85.71828618228322 0 0 0
5105 1702 2 -0.35 19.65046032254138 26.692231878357305 84.46024697063807 0 0 0
4278 1426 2 -0.35 11.42048796750976 29.712559840182262 85.5681175508347 0 0 0
4484 1495 2 -0.35 27.082464547299345 23.70997824858333 85.6522155724114 0 0 0
5563 1855 1 0.7 29.77136680101309 26.719680059241696 85.56981939866785 0 0 0
6013 2005 1 0.7 24.941315246308402 28.74011256466658 85.24012619261727 0 0 0
6015 2005 2 -0.35 25.343418183513222 27.766012536718602 84.75372778319192 0 0 0
5565 1855 2 -0.35 29.411929939175018 26.085009111254088 84.6680746608647 0 0 0
1116 372 2 -0.35 35.8411208149773 21.665536424625973 85.37148163338065 0 0 0
3088 1030 1 0.7 38.731670333837315 26.844055636293984 85.38056831713365 0 0 0
3090 1030 2 -0.35 38.8042706856798 27.921258201654236 84.9546829560817 0 0 0
5874 1958 2 -0.35 0.6800053639538024 39.79166245031862 84.93489712601557 0 0 0
1501 501 1 0.7 9.318815826716042 39.520761923803036 85.01319482903484 0 -1 0
1503 501 2 -0.35 9.586180038127505 38.8884378822739 84.07760047259885 0 -1 0
4805 1602 2 -0.35 9.50204267502904 35.97800358704684 85.30204348469653 0 0 0
5345 1782 2 -0.35 6.689335197115927 38.08844602837567 85.54672519820112 0 0 0
4804 1602 1 0.7 10.646903757962594 35.785602177572194 85.30174908560613 0 0 0
4806 1602 2 -0.35 11.791984371725961 35.594931607825636 85.31323980688475 0 0 0
5980 1994 1 0.7 12.47210634129039 32.5426510600209 85.48748012555347 0 0 0
5981 1994 2 -0.35 11.997232685749674 32.62691830051446 84.4320387818811 0 0 0
6700 2234 1 0.7 15.305651939730835 35.66042755374253 85.4789995255238 0 0 0
6702 2234 2 -0.35 15.788604036242209 35.86449074372872 84.44384635184684 0 0 0
6913 2305 1 0.7 16.31149414817952 32.26666184984287 84.58821474229643 0 0 0
6914 2305 2 -0.35 15.281652509706591 32.787896979980005 84.46941489898481 0 0 0
6915 2305 2 -0.35 17.339092899250716 31.74334569409965 84.71552350160826 0 0 0
124 42 1 0.7 19.116387938883864 36.927604619732904 85.39543842772144 0 0 0
126 42 2 -0.35 20.04368962853579 36.37465041027463 84.96778721839605 0 0 0
3316 1106 1 0.7 23.158575134224325 37.141670847800775 85.55965975791084 0 0 0
3318 1106 2 -0.35 23.529118938557183 37.32520176040438 84.47616073920547 0 0 0
3388 1130 1 0.7 21.69168087765951 33.67852993518983 84.95542353240253 0 0 0
3389 1130 2 -0.35 20.713697329227173 33.069961656252595 85.09509544805546 0 0 0
3390 1130 2 -0.35 22.676254676718926 34.27570287153838 84.81375896953422 0 0 0
3930 1310 2 -0.35 20.499235816160468 39.644870346318115 85.57593540872921 0 -1 0
1425 475 2 -0.35 25.946857339295487 33.05222437593533 85.02827488522746 0 0 0
5593 1865 1 0.7 29.487721490657812 39.270801760396964 84.36382728370509 0 0 0
5595 1865 2 -0.35 29.94306802117313 38.23055882032678 84.60635480431746 0 0 0
6876 2292 2 -0.35 39.66220203347346 35.2793160997043 85.24757190646227 0 0 0
5927 1976 2 -0.35 1.5593595830863227 4.717668382770983 86.24472789567444 0 0 0
3640 1214 1 0.7 7.190505411405666 2.4246827963286863 86.28101214631475 0 0 0
4953 1651 2 -0.35 3.296176620970301 1.2621103020586584 86.1107338760035 0 0 0
5140 1714 1 0.7 5.220381269275291 5.732888849542382 86.63236866794861 0 0 0
5142 1714 2 -0.35 4.451995123622559 6.322161659643646 85.99043596932333 0 0 0
1934 645 2 -0.35 0.38801490260818877 7.878051895531651 85.93742679869875 1 0 0
1502 501 2 -0.35 9.041918543164126 0.15233085739520633 85.94694188999362 0 0 0
565 189 1 0.7 5.7442204597248665 9.528027304679751 88.03019856760369 0 0 0
566 189 2 -0.35 5.697776357428174 8.370652859601885 87.95502779539743 0 0 0
1432 478 1 0.7 2.694887821429582 7.787849022071005 88.01320306753186 0 0 0
1434 478 2 -0.35 2.7046092388481355 8.833696648855858 87.50909589827954 0 0 0
2151 717 2 -0.35 8.71208831629664 8.208799740352747 88.17134049283263 0 0 0
3641 1214 2 -0.35 6.462474460913915 1.7812369597781335 86.91757147865779 0 0 0
4951 1651 1 0.7 3.6288673085462966 0.8386067652348033 87.13922261433335 0 0 0
5141 1714 2 -0.35 5.984496245166704 5.140494376143546 87.27522567958378 0 0 0
1335 445 2 -0.35 9.661932406778995 5.396984758075089 86.94662538266773 0 0 0
1827 609 2 -0.35 0.885050626914458 1.1568074591242172 88.0632519796595 1 0 0
4952 1651 2 -0.35 3.9430218839659448 0.4045390761963591 88.16942968627367 0 0 0
1022 341 2 -0.35 7.143183166030705 9.099231389286604 90.81599796187055 0 0 0
1433 478 2 -0.35 2.6903593942119053 6.742795838895608 88.51850357776532 0 0 0
1598 533 2 -0.35 6.438600605078347 0.6441275920809263 90.12958427394531 0 0 0
2149 717 1 0.7 8.34685026237819 7.301060805470059 88.7969023453026 0 0 0
2150 717 2 -0.35 7.99991878862741 6.386019041262944 89.41973026342501 0 0 0
2626 876 1 0.7 2.288336844045903 3.7677646401089957 88.98849148852673 0 0 0
2627 876 2 -0.35 1.2686339080263054 3.9892021314800847 89.49840689841749 0 0 0
2628 876 2 -0.35 3.3052133004995228 3.5331251834561854 88.47961158384541 0 0 0
5773 1925 1 0.7 7.441314120168528 3.5425615538691906 89.52839067904607 0 0 0
5774 1925 2 -0.35 8.350986260067105 3.261867944645832 88.86274469052104 0 0 0
5775 1925 2 -0.35 6.532164914285717 3.8160444778513325 90.19660286332444 0 0 0
2897 966 2 -0.35 0.3371394278482182 9.440315591090087 89.62496769815075 0 0 0
2969 990 2 -0.35 9.328108062104418 0.9135371928438912 90.94124743002828 0 1 0
5510 1837 2 -0.35 1.7811137393453638 1.3238938484891354 91.73277621050862 0 0 0
2008 670 1 0.7 6.637493770537346 3.4377744440326397 93.09065483140824 0 0 0
2009 670 2 -0.35 6.059330138901835 4.4067744630538055 93.36364712545296 0 0 0
2010 670 2 -0.35 7.224460017484705 2.4703853166309404 92.82847500651228 0 0 0
2950 984 1 0.7 4.396823529177546 5.845231743063106 90.91388650460588 0 0 0
2951 984 2 -0.35 4.983080375500238 6.795280871468203 90.59933988806804 0 0 0
2952 984 2 -0.35 3.793887344951796 4.905717790961586 91.23291442044233 0 0 0
4762 1588 1 0.7 3.9389745133316256 9.523089408298807 91.36803955808371 0 0 0
4140 1380 2 -0.35 9.762661662279275 4.291725883161299 91.49968204591096 0 0 0
1021 341 1 0.7 7.486763471359443 9.60653890969596 91.8024118954855 0 0 0
4764 1588 2 -0.35 4.24374996567853 9.364698345790785 92.47646331856181 0 0 0
1128 376 2 -0.35 4.620813595725122 0.6091430137518726 93.27024830280159 0 0 0
1708 570 1 0.7 3.1608799820358757 4.546596144556642 94.06432852174426 0 0 0
1709 570 2 -0.35 3.0314448439786053 5.698545845775525 94.13720327250635 0 0 0
1710 570 2 -0.35 3.2897571858611574 3.3949116290818324 94.00235244739063 0 0 0
1902 634 2 -0.35 0.7887170845032876 8.193007761765648 94.1874201634543 0 0 0
5509 1837 1 0.7 1.4055884333965136 1.3366356513732331 92.83157928293383 0 0 0
5511 1837 2 -0.35 1.0213334541651504 1.3538074323447231 93.92755437496307 0 0 0
6226 2076 1 0.7 0.7268897139820403 6.976844443488962 91.45220965695216 0 0 0
6228 2076 2 -0.35 1.830352631228435 7.331338399499858 91.38958364535235 0 0 0
6711 2237 2 -0.35 6.4001353042855715 7.437516982068826 93.45061696184692 0 0 0
2968 990 1 0.7 9.291108131961105 0.5014955553606677 92.02560462799865 0 1 0
2970 990 2 -0.35 9.252317591340177 0.10947646720465291 93.11711568048253 0 1 0
1825 609 1 0.7 0.0628353372230761 1.1220062892743876 88.88264560875979 1 0 0
942 314 2 -0.35 0.25204055577120466 4.356572071228481 93.48655105626108 0 0 0
4763 1588 2 -0.35 3.6270763923793155 9.681434653074627 90.26120840922725 0 0 0
726 242 2 -0.35 13.46739085198279 1.3308344815015398 86.11966191916144 0 0 0
1756 586 1 0.7 12.398763909205602 7.995555940046633 86.0299053281379 0 0 0
6394 2132 1 0.7 15.922409431635318 6.550188103611173 85.93350706473603 0 0 0
6395 2132 2 -0.35 16.920096753619845 6.753143158837056 86.4907489781992 0 0 0
3928 1310 1 0.7 19.986119299874705 0.5608889350047624 86.07142028233277 0 0 0
1333 445 1 0.7 10.326117520948998 4.449643763664861 86.84651860534201 0 0 0
1334 445 2 -0.35 11.000688374502039 3.50940107755405 86.748615205855 0 0 0
1591 531 1 0.7 18.27315565939108 3.88476574688872 87.84981696424556 0 0 0
1593 531 2 -0.35 19.044826621212863 4.525540690717114 87.26594635858993 0 0 0
3609 1203 2 -0.35 14.807792526681624 8.628424024532213 87.9774623307523 0 0 0
4743 1581 2 -0.35 16.609933433757508 0.18850341069148144 86.77636815032581 0 0 0
5854 1952 1 0.7 18.759101976822308 8.526247179193817 88.03855209059338 0 0 0
5856 1952 2 -0.35 19.694694515780412 8.369822670159248 87.36844836718029 0 0 0
6104 2035 2 -0.35 14.540425682615009 4.231180479508225 87.8363452621298 0 0 0
1757 586 2 -0.35 12.21819518161866 7.317097314282025 86.95529951401184 0 0 0
3929 1310 2 -0.35 19.472999204619573 1.4725785892096555 86.57340895345232 0 0 0
1627 543 1 0.7 11.39511446374542 6.1350656010182405 89.7598202709349 0 0 0
1628 543 2 -0.35 11.91612538385034 5.268927806539496 89.19021916442404 0 0 0
1629 543 2 -0.35 10.878731200692831 7.009485836097694 90.3212506144756 0 0 0
706 236 1 0.7 15.384137114288004 0.4294600029995611 89.51399088298594 0 0 0
707 236 2 -0.35 14.346221304467221 0.5627568992744836 89.01210549297483 0 0 0
708 236 2 -0.35 16.426076290421815 0.30861762262706866 90.00875418982223 0 0 0
1249 417 1 0.7 11.502738968750345 1.4641503858099347 89.0430739559235 0 0 0
1250 417 2 -0.35 11.217964645495854 0.6345914909927544 88.28344533284721 0 0 0
1251 417 2 -0.35 11.797091379375374 2.2942308911139393 89.79933512701844 0 0 0
1592 531 2 -0.35 17.49908689159339 3.2481984619367763 88.43670728791317 0 0 0
3607 1203 1 0.7 14.448443628429105 8.129659785124197 88.96183374230269 0 0 0
3608 1203 2 -0.35 14.089362919655498 7.615995355581124 89.93983179630223 0 0 0
5855 1952 2 -0.35 17.827175461968043 8.692385377152755 88.70985400817216 0 0 0
914 305 2 -0.35 19.838505606628743 6.101603147204345 89.75596437827714 0 0 0
2434 812 1 0.7 19.339342112681827 0.2784690268573132 89.39420976106366 0 0 0
2435 812 2 -0.35 19.496507135951607 1.3092836337008324 89.90506759457736 0 0 0
3720 1240 2 -0.35 11.888020925602277 9.545328972020776 89.10072163272224 0 0 0
3049 1017 1 0.7 17.133221243044634 6.604523301252529 90.57217660582278 0 0 0
3051 1017 2 -0.35 17.60993325741369 7.192708565280774 91.45148147011673 0 0 0
4138 1380 1 0.7 10.391296644368634 3.567377321484408 92.15306295532409 0 0 0
4139 1380 2 -0.35 11.000809109008733 2.831079850836145 92.81136783158026 0 0 0
6103 2035 1 0.7 14.63540087496702 3.89408678420104 88.94316465475161 0 0 0
6105 2035 2 -0.35 14.740100993867165 3.5622688654511077 90.05161277842801 0 0 0
541 181 1 0.7 17.74681067890381 3.0940752172736725 91.83403317741596 0 0 0
542 181 2 -0.35 18.347333298423678 4.01647972119403 91.46577210370074 0 0 0
543 181 2 -0.35 17.134111218284602 2.1798823285433806 92.19983150031051 0 0 0
3050 1017 2 -0.35 16.649767217534873 6.016757883955026 89.69463933894444 0 0 0
4411 1471 1 0.7 13.933267974279062 5.532370484043051 92.25888791547071 0 0 0
4412 1471 2 -0.35 12.831590784707018 5.224135770781442 92.06574130776313 0 0 0
4413 1471 2 -0.35 15.03531069315276 5.849135970901215 92.44189679288782 0 0 0
6132 2044 2 -0.35 15.473204451652709 9.173169707067848 92.38640523821606 0 0 0
6355 2119 1 0.7 14.119207686495802 1.999424527421482 92.79191198557997 0 0 0
6356 2119 2 -0.35 14.415746830779614 2.9263914032646574 93.42454481130376 0 0 0
6357 2119 2 -0.35 13.83255421985609 1.0817271483068944 92.14186639388328 0 0 0
6130 2044 1 0.7 15.704683364153455 8.701626995138549 93.42098452831596 0 0 0
2469 823 2 -0.35 18.835405795888096 9.022865951105091 93.53948217367736 0 0 0
2467 823 1 0.7 19.6576809984747 8.24002196449133 93.2933665495711 0 0 0
3718 1240 1 0.7 10.931175775786329 9.785033834080622 89.71252241730129 0 0 0
6514 2172 1 0.7 12.021863768545275 9.787199217209096 93.860923125119 0 0 0
6515 2172 2 -0.35 10.926146525810104 9.513049444093939 93.5961053733404 0 0 0
2817 939 2 -0.35 21.58173347032238 6.128335237662039 85.98204480177532 0 0 0
1193 398 2 -0.35 29.218824940859943 6.56691853569692 86.07720851027662 0 0 0
3107 1036 2 -0.35 24.383676508616308 5.018036641465478 86.63279432032566 0 0 0
6354 2118 2 -0.35 28.555717468625602 3.2478057074599374 85.84311660135663 0 0 0
4150 1384 1 0.7 22.294202330234125 9.991942716801486 86.14421387031943 0 0 0
4152 1384 2 -0.35 23.189606141045655 9.254115055639366 86.10937955210888 0 0 0
2815 939 1 0.7 21.928503317892666 6.465552983555053 87.03702050053396 0 0 0
1192 398 1 0.7 29.30228825678567 6.082173591815829 87.12888069130884 0 0 0
2816 939 2 -0.35 22.284195322802564 6.801333577584293 88.0903867661494 0 0 0
3106 1036 1 0.7 25.413147160384817 5.41126339354524 86.99690878817067 0 0 0
3108 1036 2 -0.35 26.439169958923827 5.7958570818116035 87.37875800545714 0 0 0
887 296 2 -0.35 22.107959228018206 0.20070373558761892 88.12651272018249 0 0 0
1194 398 2 -0.35 29.372215970941856 5.586498613469156 88.1770067868309 0 0 0
1657 553 1 0.7 27.256732899768824 3.6674758494506015 89.48393419436374 0 0 0
1659 553 2 -0.35 27.067410964939747 3.145981061889633 88.46531958602029 0 0 0
2605 869 1 0.7 22.898334015706485 3.201481846715041 88.55394370081018 0 0 0
2606 869 2 -0.35 21.875927964441782 3.74924324746149 88.51567660491106 0 0 0
2607 869 2 -0.35 23.923296816077585 2.658168571436704 88.58504831421297 0 0 0
4777 1593 1 0.7 26.540759617214793 8.449677817479476 88.63480943394985 0 0 0
4778 1593 2 -0.35 25.385675747316288 8.355429344938734 88.56338975445415 0 0 0
4779 1593 2 -0.35 27.695804804319867 8.541098417296537 88.70601381406448 0 0 0
5571 1857 2 -0.35 26.335407521429595 8.048657569199612 91.64024310341965 0 0 0
5887 1963 1 0.7 21.55638855745788 9.427041409890531 89.76448176411591 0 0 0
5888 1963 2 -0.35 20.696819114097234 8.963871029024308 90.392330884257 0 0 0
5889 1963 2 -0.35 22.399329243784752 9.886393135062411 89.11245367306809 0 0 0
913 305 1 0.7 20.57688224388176 5.58558533267172 90.48816201253042 0 0 0
915 305 2 -0.35 21.320271004824228 5.061363006108071 91.20937025860714 0 0 0
922 308 1 0.7 25.1312570433503 0.8303123073548254 90.48707396107345 0 0 0
924 308 2 -0.35 25.77762904256624 1.7031721864647311 90.8963890279947 0 0 0
1189 397 1 0.7 23.988896036732676 6.4056319806436335 90.51280784569994 0 0 0
1190 397 2 -0.35 24.54744451540305 5.531661034772991 89.98986197399134 0 0 0
1191 397 2 -0.35 23.417216619749368 7.273368593918989 91.02937019866954 0 0 0
1658 553 2 -0.35 27.44811401466811 4.191595943662432 90.50161397028513 0 0 0
4141 1381 1 0.7 21.44705075626377 2.0812864753189917 91.99907438869324 0 0 0
4142 1381 2 -0.35 20.52744157625989 1.9870955870983784 92.70247656128869 0 0 0
4143 1381 2 -0.35 22.36218721032011 2.1836322417115737 91.29089146740132 0 0 0
5569 1857 1 0.7 26.97231098771851 8.260500175014212 92.58810962081525 0 0 0
1175 392 2 -0.35 24.309330193961816 9.044136961862284 93.77993273460406 0 0 0
854 285 2 -0.35 27.423362094836005 0.44637486766251905 93.94343869066445 0 1 0
2468 823 2 -0.35 20.48394814264899 7.463650225237574 93.04305039447875 0 0 0
3298 1100 1 0.7 26.228034683029083 4.27885359640849 93.41475248021662 0 0 0
3299 1100 2 -0.35 26.64330723456556 5.352913148776135 93.26584289332567 0 0 0
3300 1100 2 -0.35 25.81020863055042 3.2067499014373624 93.56760740431795 0 0 0
4064 1355 2 -0.35 29.14022228321331 6.714759400944722 91.22186005253957 0 0 0
5524 1842 1 0.7 22.345225982134064 5.067703244191308 93.98813519426709 0 0 0