LAMMPS (29 Aug 2024 - Update 1)
  using 1 OpenMP thread(s) per MPI task
using multi-threaded neighbor list subroutines
Created orthogonal box = (0 0 0) to (40 40 240)
  1 by 1 by 1 MPI processor grid
Read molecule template co2mol:
# CO2 molecule file. TraPPE-Flex model.
  1 molecules
  0 fragments
  3 atoms with max type 2
  2 bonds with max type 1
  1 angles with max type 1
  0 dihedrals with max type 0
  0 impropers with max type 0
Molecule file loaded successfully
Created 6894 atoms
  using lattice units in orthogonal box = (0 0 0) to (40 40 240)
  create_atoms CPU = 1.641 seconds
Created 78 atoms
  using lattice units in orthogonal box = (0 0 0) to (40 40 240)
  create_atoms CPU = 0.007 seconds
Created 78 atoms
  using lattice units in orthogonal box = (0 0 0) to (40 40 240)
  create_atoms CPU = 0.008 seconds
Setting atom values ...
  2350 settings made for charge
Setting atom values ...
  4700 settings made for charge
lz=240
2350 atoms in group car
4700 atoms in group oxy
Balancing ...
PPPM initialization ...
  using 12-bit tables for long-range coulomb (src/kspace.cpp:342)
  G vector (1/distance) = 0.20169663
  grid = 24 24 80
  stencil order = 5
  estimated absolute RMS force accuracy = 0.00286774
  estimated relative force accuracy = 8.6361139e-06
  using single precision FFTW3
  3d grid and FFT values/proc = 82646 46080
Generated 1 of 1 mixed pair_coeff terms from arithmetic mixing rule
Last active /omp style is kspace_style pppm/omp
Neighbor list info ...
  update: every = 1 steps, delay = 0 steps, check = yes
  max neighbors/atom: 2000, page size: 100000
  master list distance cutoff = 17
  ghost atom cutoff = 17
  binsize = 8.5, bins = 5 5 29
  1 neighbor lists, perpetual/occasional/extra = 1 0 0
  (1) pair lj/cut/coul/long/omp, perpetual
      attributes: half, newton on, omp
      pair build: half/bin/newton/omp
      stencil: half/bin/3d
      bin: standard
 rebalancing time: 0.006 seconds
  iteration count = 1
  initial/final maximal load/proc = 7050 7050
  initial/final imbalance factor  = 1 1
  x cuts: 0 1
  y cuts: 0 1
  z cuts: 0 1
PPPM initialization ...
  using 12-bit tables for long-range coulomb (src/kspace.cpp:342)
  G vector (1/distance) = 0.20169663
  grid = 24 24 80
  stencil order = 5
  estimated absolute RMS force accuracy = 0.00286774
  estimated relative force accuracy = 8.6361139e-06
  using single precision FFTW3
  3d grid and FFT values/proc = 82646 46080
Generated 1 of 1 mixed pair_coeff terms from arithmetic mixing rule
Last active /omp style is kspace_style pppm/omp
Setting up cg style minimization ...
  Unit style    : real
  Current step  : 0
Per MPI rank memory allocation (min/avg/max) = 33.57 | 33.57 | 33.57 Mbytes
   Step          Temp          E_pair         E_mol          TotEng         Press     
         0   0              49336.872      7.9026918e-12  49336.872      43177.231    
      4164   0             -12061.324      22.621082     -12038.703     -242.70439    
Loop time of 689.29 on 1 procs for 4164 steps with 7050 atoms

99.5% CPU use with 1 MPI tasks x 1 OpenMP threads

Minimization stats:
  Stopping criterion = energy tolerance
  Energy initial, next-to-last, final = 
      49336.8715510149  -12038.6907174316  -12038.7026839949
  Force two-norm initial, final = 12256.268 5.7601729
  Force max component initial, final = 805.65186 0.52719177
  Final line search alpha, max atom move = 0.043647524 0.023010615
  Iterations, force evaluations = 4164 8258

MPI task timing breakdown:
Section |  min time  |  avg time  |  max time  |%varavg| %total
---------------------------------------------------------------
Pair    | 633.35     | 633.35     | 633.35     |   0.0 | 91.88
Bond    | 1.8685     | 1.8685     | 1.8685     |   0.0 |  0.27
Kspace  | 48.077     | 48.077     | 48.077     |   0.0 |  6.97
Neigh   | 3.761      | 3.761      | 3.761      |   0.0 |  0.55
Comm    | 1.0015     | 1.0015     | 1.0015     |   0.0 |  0.15
Output  | 0          | 0          | 0          |   0.0 |  0.00
Modify  | 0.12494    | 0.12494    | 0.12494    |   0.0 |  0.02
Other   |            | 1.107      |            |       |  0.16

Nlocal:           7050 ave        7050 max        7050 min
Histogram: 1 0 0 0 0 0 0 0 0 0
Nghost:          17234 ave       17234 max       17234 min
Histogram: 1 0 0 0 0 0 0 0 0 0
Neighs:    3.90986e+06 ave 3.90986e+06 max 3.90986e+06 min
Histogram: 1 0 0 0 0 0 0 0 0 0

Total # of neighbors = 3909857
Ave neighs/atom = 554.58965
Ave special neighs/atom = 2
Neighbor list builds = 40
Dangerous builds = 0
System init for write_data ...
PPPM initialization ...
  using 12-bit tables for long-range coulomb (src/kspace.cpp:342)
  G vector (1/distance) = 0.20169663
  grid = 24 24 80
  stencil order = 5
  estimated absolute RMS force accuracy = 0.00286774
  estimated relative force accuracy = 8.6361139e-06
  using single precision FFTW3
  3d grid and FFT values/proc = 82646 46080
Generated 1 of 1 mixed pair_coeff terms from arithmetic mixing rule
Last active /omp style is kspace_style pppm/omp
#Step Pxx Pyy Pzz
#Step temp press ke pe etotal ecouple econserve
#Step px py pz COM_vx COM_vy COM_vz
PPPM initialization ...
  using 12-bit tables for long-range coulomb (src/kspace.cpp:342)
  G vector (1/distance) = 0.20169663
  grid = 24 24 80
  stencil order = 5
  estimated absolute RMS force accuracy = 0.00286774
  estimated relative force accuracy = 8.6361139e-06
  using single precision FFTW3
  3d grid and FFT values/proc = 82646 46080
Generated 1 of 1 mixed pair_coeff terms from arithmetic mixing rule
Last active /omp style is kspace_style pppm/omp
Setting up Verlet run ...
  Unit style    : real
  Current step  : 0
  Time step     : 0.5
Per MPI rank memory allocation (min/avg/max) = 34.89 | 34.89 | 34.89 Mbytes
   Step         TotEng         Press           Temp            Dt      
         0  -7416.1221      307.57864      220            0.5          
      1000  -3344.6079      1673.996       223.50432      0.5          
      2000  -2823.3231      1331.6022      198.36884      0.5          
      3000  -2413.1396     -178.03284      212.09993      0.5          
      4000  -2361.489       266.72786      226.6283       0.5          
      5000  -2236.6443      141.86851      222.50378      0.5          
      6000  -1888.3065     -22.801592      217.03318      0.5          
      7000  -1711.5288     -343.18228      210.16254      0.5          
      8000  -1534.8647     -360.97852      215.47797      0.5          
      9000  -1209.9821     -353.43078      221.34283      0.5          
     10000  -1007.1682     -335.78418      219.03631      0.5          
     11000  -801.55421     -151.1276       218.31668      0.5          
     12000  -781.99734     -99.588019      217.79633      0.5          
     13000  -518.09795     -214.03502      222.94008      0.5          
     14000  -534.46874     -259.67954      223.77462      0.5          
     15000  -487.52        -154.89048      221.92026      0.5          
     16000  -546.01386     -304.86389      219.57161      0.5          
     17000  -525.91918     -119.49689      221.28211      0.5          
     18000  -618.73452     -1.8310128      221.17639      0.5          
     19000  -679.21684     -137.89189      219.19775      0.5          
     20000  -735.96299      1.4188832      220.20075      0.5          
     21000  -909.43819     -3.8856813      217.83486      0.5          
     22000  -960.83288     -89.646029      217.40581      0.5          
     23000  -1054.276       37.215038      218.04431      0.5          
     24000  -1062.3283      109.02085      219.04097      0.5          
     25000  -1014.3464      218.70902      222.80822      0.5          
     26000  -1030.0864     -122.6373       221.11426      0.5          
     27000  -1015.5656     -2.3179029      219.99464      0.5          
     28000  -994.44086     -87.215043      220.52365      0.5          
     29000  -938.00683     -148.20737      220.63222      0.5          
     30000  -1020.6391      130.35025      216.7074       0.5          
     31000  -799.19541      214.36817      221.36693      0.5          
     32000  -930.86118     -171.47245      216.91246      0.5          
     33000  -918.60869      35.265869      219.37506      0.5          
     34000  -751.31041      2.4418726      220.69355      0.5          
     35000  -856.12252      159.6705       219.81558      0.5          
     36000  -971.52651      119.84387      219.03441      0.5          
     37000  -954.93418     -17.15487       219.3831       0.5          
     38000  -848.63659     -226.35737      220.83803      0.5          
     39000  -861.42644      151.40856      220.55562      0.5          
     40000  -895.82028      99.565873      218.34607      0.5          
     41000  -853.99508      117.67211      222.04581      0.5          
     42000  -793.24867     -356.03757      220.24738      0.5          
     43000  -702.06546      194.11808      224.211        0.5          
     44000  -805.37113     -189.70258      219.72886      0.5          
     45000  -806.56579     -186.60963      219.09084      0.5          
     46000  -749.00007     -15.372266      218.65567      0.5          
     47000  -736.71867     -180.43292      221.36839      0.5          
     48000  -745.20471     -312.36392      224.99764      0.5          
     49000  -844.64185      68.719204      219.12         0.5          
     50000  -824.70281      218.16516      222.11498      0.5          
     51000  -937.64518     -197.21023      219.27894      0.5          
     52000  -894.72543      42.347733      221.14782      0.5          
     53000  -902.38084      262.58288      217.5448       0.5          
     54000  -810.86329      121.1716       221.13269      0.5          
     55000  -1002.6678      153.52728      215.18834      0.5          
     56000  -914.85097      74.981189      218.0759       0.5          
     57000  -848.04723     -278.54491      220.65153      0.5          
     58000  -891.05754      294.99029      220.8955       0.5          
     59000  -948.6639       286.07303      219.64467      0.5          
     60000  -1004.9768     -168.38294      215.37483      0.5          
     61000  -900.72076      45.768729      221.11734      0.5          
     62000  -917.67282      170.57606      217.78375      0.5          
     63000  -930.08807     -261.82115      218.47656      0.5          
     64000  -748.8705      -18.955241      225.95237      0.5          
     65000  -809.44247     -44.020745      218.93546      0.5          
     66000  -937.62719      178.26881      216.08726      0.5          
     67000  -937.6864      -23.871533      217.81281      0.5          
     68000  -878.99999     -147.51548      217.11936      0.5          
     69000  -754.30751     -62.138159      221.37592      0.5          
     70000  -665.80032     -361.28314      222.07109      0.5          
     71000  -681.81741     -67.746834      224.48478      0.5          
     72000  -806.91265     -276.32649      217.95333      0.5          
     73000  -850.23058     -124.95572      218.72464      0.5          
     74000  -713.22954     -63.480831      221.16357      0.5          
     75000  -909.45566      227.46448      219.87756      0.5          
     76000  -943.28574     -145.66964      220.57973      0.5          
     77000  -963.14669     -125.1904       217.36624      0.5          
     78000  -881.77596      24.408558      217.80497      0.5          
     79000  -933.48475      99.157084      218.04241      0.5          
     80000  -895.59654      60.148674      218.54845      0.5          
     81000  -894.57277     -57.971973      219.45197      0.5          
     82000  -772.42914      328.51989      222.7992       0.5          
     83000  -829.14934     -170.9782       219.32731      0.5          
     84000  -820.9431      -233.09951      218.78436      0.5          
     85000  -836.98532      98.831775      218.63951      0.5          
     86000  -877.34428      75.840428      218.93585      0.5          
     87000  -769.036        243.97166      223.9874       0.5          
     88000  -797.05501     -171.87965      221.10811      0.5          
     89000  -852.72231     -316.14251      218.7963       0.5          
     90000  -887.86528     -66.580406      219.96329      0.5          
     91000  -852.50204     -108.77005      218.7605       0.5          
     92000  -739.92926      66.895885      223.05803      0.5          
     93000  -848.62461      58.111523      218.55554      0.5          
     94000  -794.14368     -111.14781      218.16367      0.5          
     95000  -793.68813      33.965635      218.32176      0.5          
     96000  -879.31757     -95.701948      219.32735      0.5          
     97000  -764.91227     -80.081704      221.48153      0.5          
     98000  -784.91603     -117.58158      220.04275      0.5          
     99000  -874.70167      42.314707      218.67016      0.5          
    100000  -882.95561      78.473654      218.96979      0.5          
    101000  -848.63784     -268.20808      220.97517      0.5          
    102000  -880.67721     -14.079748      216.65485      0.5          
    103000  -741.4292       194.06591      224.05192      0.5          
    104000  -793.67294     -87.525469      221.48627      0.5          
    105000  -768.33285      19.283419      222.15898      0.5          
    106000  -869.48874     -293.70106      218.86376      0.5          
    107000  -855.10651     -166.63995      218.07971      0.5          
    108000  -786.95547      219.31937      221.6131       0.5          
    109000  -894.19604      302.24322      217.36521      0.5          
    110000  -826.58084     -268.49495      219.74955      0.5          
    111000  -866.90582     -86.281331      221.38847      0.5          
    112000  -893.9491       281.50359      218.34778      0.5          
    113000  -1045.3726     -90.600242      217.46642      0.5          
    114000  -808.79222     -77.182932      223.44011      0.5          
    115000  -868.86594     -148.38178      218.86559      0.5          
    116000  -841.04952      6.2983238      222.44996      0.5          
    117000  -840.43292      79.354323      222.44361      0.5          
    118000  -920.70449     -347.04631      218.78445      0.5          
    119000  -893.61695     -57.800706      221.38185      0.5          
    120000  -822.80497     -108.16788      223.2584       0.5          
    121000  -966.66863     -195.47436      221.21835      0.5          
    122000  -1027.5132      14.102302      219.92999      0.5          
    123000  -875.18996      25.936035      225.42221      0.5          
    124000  -1005.3133      28.859658      219.73647      0.5          
    125000  -1102.803       44.385707      219.10811      0.5          
    126000  -1133.6162     -228.14565      221.31017      0.5          
    127000  -1167.4458     -190.68766      221.20567      0.5          
    128000  -1131.1678      357.37908      222.22585      0.5          
    129000  -1240.9187      120.47713      216.60224      0.5          
    130000  -1065.4628      159.56343      223.34099      0.5          
    131000  -1021.7287      35.827119      225.47672      0.5          
    132000  -1207.9277     -141.5427       220.02752      0.5          
    133000  -1274.9805      218.39962      219.40624      0.5          
    134000  -1316.756      -2.0259509      215.23673      0.5          
    135000  -1275.974       97.042561      217.33314      0.5          
    136000  -1152.156       168.23502      223.55825      0.5          
    137000  -1205.4991      43.84976       219.95623      0.5          
    138000  -1231.2798      138.45179      221.22705      0.5          
    139000  -1156.2769      98.002903      222.74334      0.5          
    140000  -1023.8869      287.7786       224.83912      0.5          
    141000  -1168.2054      120.76491      217.31188      0.5          
    142000  -1106.5776     -411.98134      219.62901      0.5          
    143000  -1126.6432      270.58146      216.03386      0.5          
    144000  -979.66431      265.54423      221.83688      0.5          
    145000  -1091.3376     -171.83661      217.10945      0.5          
    146000  -1043.872       0.38269548     220.47985      0.5          
    147000  -963.22312     -18.654677      221.97685      0.5          
    148000  -904.68159     -15.696569      223.43336      0.5          
    149000  -795.58337     -94.543709      226.44289      0.5          
    150000  -895.61933     -126.35606      219.78224      0.5          
    151000  -779.26079     -255.12936      223.33224      0.5          
    152000  -887.53108     -112.87743      218.86278      0.5          
    153000  -990.08372     -146.45279      215.63058      0.5          
    154000  -915.87818     -17.284594      218.04746      0.5          
    155000  -940.01313     -204.90636      219.30839      0.5          
    156000  -859.91673      15.163956      219.99432      0.5          
    157000  -846.21404     -100.91626      217.98779      0.5          
    158000  -812.12501      70.86845       221.85972      0.5          
    159000  -923.69007     -145.17458      220.20576      0.5          
    160000  -965.22471     -34.212776      217.82238      0.5          
    161000  -946.96619      56.636828      218.39667      0.5          
    162000  -875.95533     -35.87242       221.89996      0.5          
    163000  -929.37968     -73.778193      220.9807       0.5          
    164000  -915.8065      -221.9311       221.29337      0.5          
    165000  -943.11851     -210.94161      223.95621      0.5          
    166000  -993.40827      112.03504      220.72553      0.5          
    167000  -1048.4239      32.474687      217.72034      0.5          
    168000  -1049.83       -139.1093       221.60981      0.5          
    169000  -941.99173     -94.601313      220.63021      0.5          
    170000  -1039.179       157.39865      221.80676      0.5          
    171000  -1102.4323     -24.70305       218.3698       0.5          
    172000  -1105.5885      9.3457026      221.40144      0.5          
    173000  -1064.376      -193.6664       218.51205      0.5          
    174000  -1110.1669      27.230806      220.37669      0.5          
    175000  -1032.4716      104.68019      222.22381      0.5          
    176000  -1032.5899      71.243564      222.53688      0.5          
    177000  -1113.9633      83.630937      218.95053      0.5          
    178000  -1160.5428      36.686404      219.41982      0.5          
    179000  -1105.1255     -57.203957      219.18119      0.5          
    180000  -1118.3099      131.20607      219.91562      0.5          
    181000  -1046.1513      2.670269       219.16024      0.5          
    182000  -973.68146      7.8714377      218.42037      0.5          
    183000  -1013.8643     -21.872996      219.3419       0.5          
    184000  -986.83683      153.96405      220.2799       0.5          
    185000  -967.57269      68.587305      219.96877      0.5          
    186000  -861.64694      87.911692      223.53572      0.5          
    187000  -954.11475     -434.08677      216.72125      0.5          
    188000  -843.83535     -4.6918312      223.28715      0.5          
    189000  -931.08351      252.43398      217.13398      0.5          
    190000  -929.06575     -312.45831      217.01207      0.5          
    191000  -974.93404     -262.12261      218.73318      0.5          
    192000  -917.82018     -154.27746      219.8562       0.5          
    193000  -829.96484      375.16902      223.46329      0.5          
    194000  -813.61192      359.58706      224.71755      0.5          
    195000  -931.21895     -167.1339       218.92051      0.5          
    196000  -947.9341      -315.56413      220.0718       0.5          
    197000  -939.48205      237.89093      219.70008      0.5          
    198000  -908.11825      116.39572      221.09657      0.5          
    199000  -954.91369     -482.65582      218.86393      0.5          
    200000  -980.55108     -89.3935        219.92493      0.5          
    201000  -1023.421      -16.097969      219.61349      0.5          
    202000  -1073.945      -104.49676      221.32182      0.5          
    203000  -986.54576     -117.56949      217.81595      0.5          
    204000  -1019.9385      9.2277117      217.38675      0.5          
    205000  -892.34909     -0.64452723     222.22108      0.5          
    206000  -916.96193      8.2098636      223.74625      0.5          
    207000  -1052.8483      87.242746      215.41919      0.5          
    208000  -1081.524      -52.815419      221.89608      0.5          
    209000  -1124.2542     -143.09678      216.42891      0.5          
    210000  -1048.7536      97.802495      218.5765       0.5          
    211000  -1084.2819     -2.2403714      215.61926      0.5          
    212000  -913.78298      59.967159      221.33791      0.5          
    213000  -988.51108      120.29789      220.38584      0.5          
    214000  -1068.9266      58.812649      216.67546      0.5          
    215000  -920.90961     -252.44249      222.33694      0.5          
    216000  -969.38835     -64.122532      220.10583      0.5          
    217000  -921.52416      36.816496      221.55773      0.5          
    218000  -878.53303     -120.06289      221.0905       0.5          
    219000  -1046.5989      59.497484      217.34751      0.5          
    220000  -965.62832     -3.4812333      219.44801      0.5          
    221000  -958.76622     -107.15049      222.81163      0.5          
    222000  -997.46468     -61.845353      220.86311      0.5          
    223000  -958.13861      278.59879      221.32909      0.5          
    224000  -945.81827      296.38401      217.92392      0.5          
    225000  -889.81508     -96.999079      221.60992      0.5          
    226000  -897.55784      64.94197       224.54216      0.5          
    227000  -798.17782      17.77588       221.27144      0.5          
    228000  -989.38461      5.4152802      218.03807      0.5          
    229000  -919.02441     -201.22627      220.8737       0.5          
    230000  -939.72257      31.626605      222.06446      0.5          
    231000  -939.99856      205.77214      218.5316       0.5          
    232000  -876.72823     -2.772231       223.19712      0.5          
    233000  -932.17514     -139.22659      220.42528      0.5          
    234000  -960.39752      245.13882      218.83322      0.5          
    235000  -914.07215      178.14604      220.89953      0.5          
    236000  -850.54512      91.363576      221.75509      0.5          
    237000  -977.63768     -115.97904      218.21595      0.5          
    238000  -930.48549     -80.411278      220.67041      0.5          
    239000  -986.48458      79.51279       220.33084      0.5          
    240000  -932.78125      26.32678       223.64622      0.5          
    241000  -886.09613      131.20185      222.82989      0.5          
    242000  -985.03301      13.957936      218.83807      0.5          
    243000  -897.43064     -127.89959      223.23294      0.5          
    244000  -861.28047     -38.127051      220.03938      0.5          
    245000  -857.84186      92.369119      222.14744      0.5          
    246000  -977.35818      0.12582137     219.83838      0.5          
    247000  -913.53933     -87.978244      221.18892      0.5          
    248000  -941.71972     -47.4595        218.60989      0.5          
    249000  -896.48996      103.45096      218.64837      0.5          
    250000  -854.54256      9.5606019      222.87872      0.5          
    251000  -977.41692     -59.155435      217.09677      0.5          
    252000  -990.13801     -82.476445      218.91117      0.5          
    253000  -899.54898     -32.264251      219.56794      0.5          
    254000  -868.59841     -234.12698      219.97757      0.5          
    255000  -989.98946     -177.13113      217.31828      0.5          
    256000  -878.93803     -80.385506      222.37602      0.5          
    257000  -757.57381     -41.081903      224.79028      0.5          
    258000  -876.44984      94.490797      220.07144      0.5          
    259000  -922.24148     -41.323306      221.98211      0.5          
    260000  -933.7635      -390.25067      218.80054      0.5          
    261000  -959.8709      -72.607579      219.61189      0.5          
    262000  -865.84086     -116.77582      219.09999      0.5          
    263000  -844.17464      23.692737      220.91284      0.5          
    264000  -841.42207     -30.682844      222.21989      0.5          
    265000  -885.31332      65.057334      221.37956      0.5          
    266000  -997.41402     -238.22342      220.91448      0.5          
    267000  -937.33923      21.083844      218.52241      0.5          
    268000  -818.35351     -100.93103      221.61749      0.5          
    269000  -873.13523     -39.535175      222.01206      0.5          
    270000  -886.55059      98.959442      221.40723      0.5          
    271000  -846.93125     -188.7662       223.44612      0.5          
    272000  -970.78022     -144.23569      219.52618      0.5          
    273000  -1037.15        234.76567      217.0782       0.5          
    274000  -971.03637      114.30511      220.8963       0.5          
    275000  -908.08699     -225.3436       220.49086      0.5          
    276000  -926.49652      90.985815      220.45084      0.5          
    277000  -808.53446      38.027995      223.18192      0.5          
    278000  -939.58098      37.575542      220.12078      0.5          
    279000  -907.55765     -154.70945      220.00219      0.5          
    280000  -1021.8637      35.921541      217.42634      0.5          
    281000  -892.20992      45.811086      219.63947      0.5          
    282000  -1034.0274     -201.45621      217.04071      0.5          
    283000  -912.96112     -64.53806       220.56723      0.5          
    284000  -949.75304      168.3148       216.99461      0.5          
    285000  -864.72833      197.77124      221.86525      0.5          
    286000  -1086.4026     -172.35286      218.2657       0.5          
    287000  -852.67761      69.923709      220.70613      0.5          
    288000  -896.89865      308.15303      222.63459      0.5          
    289000  -978.78191     -335.66009      220.83979      0.5          
    290000  -1072.6395     -161.34494      218.44529      0.5          
    291000  -946.39393      88.684485      219.57667      0.5          
    292000  -930.36113     -46.298555      219.30744      0.5          
    293000  -991.04101      75.092688      220.26027      0.5          
    294000  -1093.8625     -165.68894      217.3192       0.5          
    295000  -966.2324      -159.40925      220.82587      0.5          
    296000  -934.38695     -2.244925       219.76771      0.5          
    297000  -1078.2836     -256.63324      218.20613      0.5          
    298000  -1068.3654      107.36773      219.94273      0.5          
    299000  -1061.9312      268.55014      217.04361      0.5          
    300000  -872.57134     -25.24292       225.50954      0.5          
    301000  -1050.975      -279.00718      217.74386      0.5          
    302000  -953.52821     -49.264295      223.21492      0.5          
    303000  -1075.0351      40.213002      216.41289      0.5          
    304000  -1025.5118      261.20215      220.70415      0.5          
    305000  -1045.1762     -84.638366      220.35433      0.5          
    306000  -990.29954     -187.73492      219.08367      0.5          
    307000  -1048.5141      220.54815      218.67408      0.5          
    308000  -1092.48       -46.947807      216.92307      0.5          
    309000  -985.36922     -119.79053      218.07269      0.5          
    310000  -951.27458     -64.398564      218.05106      0.5          
    311000  -1018.5047      51.453299      217.9537       0.5          
    312000  -880.01071     -68.814109      221.34804      0.5          
    313000  -916.02602      194.22447      222.09068      0.5          
    314000  -920.39316      65.115494      218.85527      0.5          
    315000  -770.46836      77.036594      224.63245      0.5          
    316000  -877.7466       11.437965      219.02557      0.5          
    317000  -826.52641     -278.29934      223.83532      0.5          
    318000  -961.1388      -104.86431      220.38676      0.5          
    319000  -903.39524      305.35652      222.1169       0.5          
    320000  -896.28662     -101.51796      221.01012      0.5          
    321000  -963.4202      -161.87663      218.95081      0.5          
    322000  -967.07405     -69.000507      217.98171      0.5          
    323000  -1006.9945      130.90508      218.69456      0.5          
    324000  -878.5246      -30.15639       223.10985      0.5          
    325000  -1001.5443     -204.19649      219.59354      0.5          
    326000  -1050.381       21.663391      214.45785      0.5          
    327000  -988.53307      115.92053      218.42513      0.5          
    328000  -918.2315      -90.08059       222.2316       0.5          
    329000  -974.93385     -44.192021      220.28649      0.5          
    330000  -988.57926     -90.940822      220.58475      0.5          
    331000  -924.02648      268.00321      219.94928      0.5          
    332000  -1080.008      -164.16827      217.9962       0.5          
    333000  -1032.768      -161.65499      217.6959       0.5          
    334000  -925.22511      60.089593      219.00563      0.5          
    335000  -913.01105     -286.09747      221.43288      0.5          
    336000  -858.83367     -183.47579      223.4093       0.5          
    337000  -983.8295       271.68317      218.09409      0.5          
    338000  -1072.4381      23.078601      216.95521      0.5          
    339000  -884.57033      50.724187      224.04008      0.5          
    340000  -939.66018      147.79491      221.79592      0.5          
    341000  -980.15031     -113.30937      220.15717      0.5          
    342000  -1048.4787      24.991846      219.22045      0.5          
    343000  -1027.1949     -136.84715      218.27876      0.5          
    344000  -1081.1378     -42.570753      219.0354       0.5          
    345000  -913.19911     -116.66172      220.76059      0.5          
    346000  -874.68001      92.287518      222.74175      0.5          
    347000  -1002.1454      217.90198      219.58742      0.5          
    348000  -1032.2646      68.421808      216.62081      0.5          
    349000  -1071.1967     -151.27628      217.75463      0.5          
    350000  -1028.5662      149.89632      219.26125      0.5          
    351000  -1045.0792     -2.322075       216.22381      0.5          
    352000  -1101.4657      38.899354      217.75114      0.5          
    353000  -977.81499      88.131981      218.72289      0.5          
    354000  -834.63109      147.74129      224.12322      0.5          
    355000  -900.81636     -135.0222       222.60536      0.5          
    356000  -958.11568      171.59561      223.17779      0.5          
    357000  -923.84362      210.87891      220.04135      0.5          
    358000  -1004.9863      69.417154      220.46876      0.5          
    359000  -984.08347      30.895396      219.01577      0.5          
    360000  -893.77373     -185.26762      221.34924      0.5          
    361000  -967.15411     -163.76811      217.88984      0.5          
    362000  -939.06134     -70.144738      221.17518      0.5          
    363000  -942.66607     -107.92226      220.80374      0.5          
    364000  -916.50035      67.066746      220.60891      0.5          
    365000  -1007.4226     -112.93911      220.28782      0.5          
    366000  -943.6609      -103.06535      221.02912      0.5          
    367000  -1002.8231      73.491792      218.98712      0.5          
    368000  -981.45812     -247.36506      218.70586      0.5          
    369000  -918.60556     -151.48749      220.10648      0.5          
    370000  -923.43906     -86.350648      223.18861      0.5          
    371000  -821.69508      127.54306      222.42496      0.5          
    372000  -971.53325      44.172484      219.05405      0.5          
    373000  -876.73263     -414.66284      220.50302      0.5          
    374000  -910.45032      163.56309      217.56439      0.5          
    375000  -847.45353     -112.27778      222.98832      0.5          
    376000  -905.59718     -275.03279      220.43036      0.5          
    377000  -934.42901      226.70665      219.43407      0.5          
    378000  -992.5464      -61.437701      219.45311      0.5          
    379000  -921.58645     -311.35191      220.39293      0.5          
    380000  -905.38538      10.932243      221.56194      0.5          
    381000  -789.28881      277.15419      222.38073      0.5          
    382000  -1001.2384      122.1656       216.04068      0.5          
    383000  -951.14024     -133.92424      219.11851      0.5          
    384000  -920.17108     -207.45551      218.23245      0.5          
    385000  -980.58518     -376.3339       216.63778      0.5          
    386000  -850.89311      50.496706      222.12109      0.5          
    387000  -827.1932       167.14541      220.05828      0.5          
    388000  -938.94345      132.45087      217.91427      0.5          
    389000  -947.59397      48.777684      219.73518      0.5          
    390000  -924.08615      76.269313      221.99898      0.5          
    391000  -863.80498      1.0764762      221.77244      0.5          
    392000  -911.55098     -21.775526      219.14033      0.5          
    393000  -817.75493     -46.520556      221.52867      0.5          
    394000  -920.40662      89.84774       218.86047      0.5          
    395000  -812.01494     -113.82933      223.6626       0.5          
    396000  -953.76533     -221.37173      219.1261       0.5          
    397000  -829.50738      107.31434      222.73048      0.5          
    398000  -1012.4355      76.766764      218.19123      0.5          
    399000  -1026.3537     -213.75294      216.79107      0.5          
    400000  -832.58118     -95.215031      226.45777      0.5          
    401000  -930.99832      133.11317      221.76249      0.5          
    402000  -1016.0838      196.69464      218.06083      0.5          
    403000  -977.16453      20.433514      216.38169      0.5          
    404000  -1017.1776      5.5221178      219.88667      0.5          
    405000  -1030.5032      59.00829       220.78895      0.5          
    406000  -1054.3062     -191.64724      217.76156      0.5          
    407000  -944.3436       261.81332      221.05068      0.5          
    408000  -931.21585      1.4291221      220.57913      0.5          
    409000  -1048.2676     -269.25322      218.75229      0.5          
    410000  -1036.0971      60.092212      218.95145      0.5          
    411000  -1039.5997      131.17713      219.86271      0.5          
    412000  -928.06914     -266.36993      218.57067      0.5          
    413000  -926.83217      111.71456      222.51609      0.5          
    414000  -964.01118     -22.296787      219.8846       0.5          
    415000  -1068.6874     -51.708803      217.64907      0.5          
    416000  -1040.3861      123.13705      218.80359      0.5          
    417000  -1053.2359     -28.46219       219.48015      0.5          
    418000  -1044.5362      154.79525      219.62633      0.5          
    419000  -1046.7806      387.06161      216.03062      0.5          
    420000  -1013.2696     -108.12441      219.63553      0.5          
    421000  -1067.8626     -111.39247      219.76582      0.5          
    422000  -1013.2057     -7.0558445      220.31229      0.5          
    423000  -970.14275      81.828227      219.51703      0.5          
    424000  -925.15954      89.370384      219.5987       0.5          
    425000  -908.69439      301.00707      222.98896      0.5          
    426000  -968.02798     -154.79674      219.72525      0.5          
    427000  -942.6587       13.582159      220.24319      0.5          
    428000  -1082.3841      130.78327      217.87401      0.5          
    429000  -937.89426      76.595996      222.19009      0.5          
    430000  -967.8569      -24.319376      223.86095      0.5          
    431000  -952.74568      131.90247      221.13133      0.5          
    432000  -1035.8506      74.01195       219.27817      0.5          
    433000  -895.60964     -57.093343      219.05905      0.5          
    434000  -963.28841     -78.229817      219.08239      0.5          
    435000  -923.97509     -57.12013       219.97122      0.5          
    436000  -834.40006      104.25457      221.28511      0.5          
    437000  -877.89493      42.473234      221.9923       0.5          
    438000  -867.68424     -419.00216      219.12921      0.5          
    439000  -832.74975     -119.09434      220.70732      0.5          
    440000  -913.55631      114.74386      218.59006      0.5          
    441000  -814.36677     -352.65801      218.45004      0.5          
    442000  -694.98813      65.889297      221.55862      0.5          
    443000  -771.71936      305.96015      219.02927      0.5          
    444000  -664.49459      40.876943      224.49881      0.5          
    445000  -867.23693     -335.41361      219.01849      0.5          
    446000  -853.76975     -14.364622      218.05386      0.5          
    447000  -766.49717      62.97377       221.59908      0.5          
    448000  -948.16347     -214.25369      217.69714      0.5          
    449000  -926.34087      7.2070733      217.94845      0.5          
    450000  -914.46636      19.424317      216.50451      0.5          
    451000  -912.26705     -32.955415      217.22745      0.5          
    452000  -723.84396     -230.44062      225.86641      0.5          
    453000  -793.42701     -0.39183614     220.14877      0.5          
    454000  -919.99628     -165.33546      220.90516      0.5          
    455000  -883.34169     -137.95398      220.73182      0.5          
    456000  -813.5487       218.82569      218.68016      0.5          
    457000  -793.58931      138.26712      219.69278      0.5          
    458000  -798.94595      122.9932       220.03135      0.5          
    459000  -932.61005      193.56279      219.10423      0.5          
    460000  -910.36412     -107.24014      222.175        0.5          
    461000  -921.32374     -209.72276      223.08765      0.5          
    462000  -917.24579     -16.523615      217.98246      0.5          
    463000  -812.65804      88.547165      222.31191      0.5          
    464000  -900.39689     -231.49217      221.06904      0.5          
    465000  -855.91612      78.889035      220.57359      0.5          
    466000  -905.66006      127.4847       218.55324      0.5          
    467000  -907.36886     -214.60288      220.31028      0.5          
    468000  -995.90213      116.57624      217.79746      0.5          
    469000  -944.96815      143.56924      220.35009      0.5          
    470000  -856.23356     -295.26739      221.63776      0.5          
    471000  -879.53914      177.26313      222.00871      0.5          
    472000  -1024.3358      283.44672      219.47929      0.5          
    473000  -1071.918      -604.13988      216.6491       0.5          
    474000  -890.58683      16.983198      222.1907       0.5          
    475000  -872.47406      1.8234525      219.88421      0.5          
    476000  -873.93063     -93.332394      220.68684      0.5          
    477000  -892.5366       315.36442      219.1622       0.5          
    478000  -858.79209      88.167166      221.55         0.5          
    479000  -947.6523       50.135332      222.17773      0.5          
    480000  -966.64434      131.97795      219.41532      0.5          
    481000  -991.91539     -222.73992      217.41776      0.5          
    482000  -852.09517     -34.754925      222.93893      0.5          
    483000  -1031.1431     -13.198825      219.58508      0.5          
    484000  -957.28715     -4.4980677      222.53843      0.5          
    485000  -984.43784      159.10724      220.39717      0.5          
    486000  -890.762        142.51664      224.089        0.5          
    487000  -923.17571     -96.241366      219.23386      0.5          
    488000  -885.54143      120.71466      222.69849      0.5          
    489000  -994.86163      6.6699977      218.76294      0.5          
    490000  -1072.2509     -305.91607      216.09952      0.5          
    491000  -1018.0126     -126.43132      218.37027      0.5          
    492000  -961.52981      70.893454      216.91207      0.5          
    493000  -904.54313     -99.380344      225.08929      0.5          
    494000  -826.86382     -30.910152      220.5798       0.5          
    495000  -988.17922      201.59757      214.10473      0.5          
    496000  -912.32853     -256.89254      217.0629       0.5          
    497000  -803.95126     -263.02329      220.19821      0.5          
    498000  -736.52324     -8.4712464      221.92202      0.5          
    499000  -702.18999     -64.134232      224.82491      0.5          
    500000  -799.32952      3.6697773      220.97062      0.5          
    501000  -860.81919      66.269524      220.71424      0.5          
    502000  -909.10696      177.69738      218.88932      0.5          
    503000  -857.6592      -198.29091      222.63163      0.5          
    504000  -970.31766     -219.79943      219.31139      0.5          
    505000  -867.95629      174.01015      219.31673      0.5          
    506000  -818.26874      294.70722      221.95667      0.5          
    507000  -865.82796     -233.17881      220.01038      0.5          
    508000  -865.58487     -210.44242      220.3457       0.5          
    509000  -879.09734     -103.7445       218.01263      0.5          
    510000  -1047.2842      196.16957      213.95949      0.5          
    511000  -1015.663       74.779597      220.32094      0.5          
    512000  -883.57521     -262.81968      220.52592      0.5          
    513000  -906.1854      -202.7536       219.24329      0.5          
    514000  -1039.9122      219.85381      215.28325      0.5          
    515000  -973.6734       53.742868      221.41189      0.5          
    516000  -940.8494      -381.60272      218.04205      0.5          
    517000  -896.68496      216.16156      221.66885      0.5          
    518000  -981.03527      107.42576      218.35053      0.5          
    519000  -911.01071     -577.15852      220.016        0.5          
    520000  -984.71493      275.91139      217.33479      0.5          
    521000  -806.39297      74.24728       224.4422       0.5          
    522000  -900.31614     -49.881581      220.13322      0.5          
    523000  -862.1982      -102.04518      218.42313      0.5          
    524000  -999.49207      43.204225      215.26961      0.5          
    525000  -928.55323     -131.10208      221.01645      0.5          
    526000  -931.63081     -17.742759      219.55078      0.5          
    527000  -902.19601      53.677961      221.14532      0.5          
    528000  -985.76809      21.341237      217.78397      0.5          
    529000  -1022.4084      3.8317245      217.31615      0.5          
    530000  -929.06089      60.729101      219.32327      0.5          
    531000  -929.45312     -269.12317      217.6981       0.5          
    532000  -902.08901     -39.41497       221.4622       0.5          
    533000  -843.91741      46.1505        223.63882      0.5          
    534000  -891.9081       173.63681      219.31961      0.5          
    535000  -962.29098      214.77583      218.76597      0.5          
    536000  -948.89053      198.39343      218.27686      0.5          
    537000  -901.92822     -74.949207      221.97683      0.5          
    538000  -759.06714     -186.94621      222.13308      0.5          
    539000  -858.13839      135.79433      220.84998      0.5          
    540000  -860.03967      149.26475      220.91604      0.5          
    541000  -927.05646     -69.36726       220.90817      0.5          
    542000  -954.32794     -39.618852      219.46204      0.5          
    543000  -896.71236      226.74607      221.83653      0.5          
    544000  -967.26937     -87.348107      216.69584      0.5          
    545000  -842.22505      2.4501521      226.38841      0.5          
    546000  -887.54803     -83.057991      218.29049      0.5          
    547000  -943.97787     -19.270285      220.16396      0.5          
    548000  -1000.3593     -193.72324      216.27812      0.5          
    549000  -968.17607      32.296231      222.75267      0.5          
    550000  -957.76738     -45.261777      219.41832      0.5          
    551000  -1013.4358      104.83628      218.19157      0.5          
    552000  -933.20576     -0.20514385     221.96282      0.5          
    553000  -894.9432      -271.26288      221.16931      0.5          
    554000  -858.16961      166.80431      223.3511       0.5          
    555000  -917.13515      202.77771      220.53424      0.5          
    556000  -1043.7685     -166.40773      215.85032      0.5          
    557000  -1008.1519      129.61069      216.65793      0.5          
    558000  -901.47315      284.80877      218.92854      0.5          
    559000  -914.74615     -231.26884      220.53085      0.5          
    560000  -950.33926     -403.43885      221.492        0.5          
    561000  -891.70493     -66.519339      221.99891      0.5          
    562000  -924.21573      75.166565      218.12503      0.5          
    563000  -899.25667      45.385855      220.69148      0.5          
    564000  -886.75885     -24.728122      219.45552      0.5          
    565000  -821.08501     -117.37516      221.27409      0.5          
    566000  -774.73468     -54.857643      225.60406      0.5          
    567000  -950.26345      177.31506      216.13639      0.5          
    568000  -820.08097     -13.915113      220.45661      0.5          
    569000  -802.78628     -210.18338      222.01442      0.5          
    570000  -734.69903      161.35246      219.67327      0.5          
    571000  -815.14319      111.85734      220.80374      0.5          
    572000  -804.816        32.628335      220.32714      0.5          
    573000  -746.58109     -61.342933      221.7065       0.5          
    574000  -720.90304     -145.55979      218.88335      0.5          
    575000  -694.39716     -70.460362      221.63737      0.5          
    576000  -710.99687     -316.30466      221.60482      0.5          
    577000  -792.38414     -240.62502      217.85559      0.5          
    578000  -744.16633      19.942374      220.84564      0.5          
    579000  -809.83471     -39.704025      216.93418      0.5          
    580000  -839.31586     -196.46572      216.73506      0.5          
    581000  -764.7287      -189.71612      219.18204      0.5          
    582000  -811.78395      266.83527      220.57759      0.5          
    583000  -829.59224      250.77462      216.35053      0.5          
    584000  -862.28993      14.961287      217.47099      0.5          
    585000  -793.24941      8.0634305      223.16359      0.5          
    586000  -938.65812      76.010673      220.00311      0.5          
    587000  -886.79377     -75.026939      219.15205      0.5          
    588000  -924.13195     -104.01096      217.49402      0.5          
    589000  -894.8717       99.731844      223.78534      0.5          
    590000  -1003.5171     -20.134604      218.09832      0.5          
    591000  -932.59625     -92.103367      220.17364      0.5          
    592000  -902.62676      25.876455      221.05047      0.5          
    593000  -914.48481      90.872425      223.70657      0.5          
    594000  -999.9735      -69.436165      218.04883      0.5          
    595000  -887.41084      132.89294      221.92732      0.5          
    596000  -913.93237      119.35541      221.05782      0.5          
    597000  -1023.7357      63.842226      219.64562      0.5          
    598000  -1046.7193     -19.474966      217.83806      0.5          
    599000  -848.38475     -57.135536      221.81616      0.5          
    600000  -935.53449     -67.855381      220.98046      0.5          
    601000  -969.63871      30.587553      218.58512      0.5          
    602000  -838.07352      64.649701      221.68217      0.5          
    603000  -1000.9134     -339.83153      218.54347      0.5          
    604000  -917.90786     -230.62744      220.21629      0.5          
    605000  -801.83339      157.95938      222.50304      0.5          
    606000  -791.87394      49.871279      221.91578      0.5          
    607000  -872.25061     -20.654299      218.02163      0.5          
    608000  -972.00985      88.938448      216.47448      0.5          
    609000  -983.51532      209.03936      218.90607      0.5          
    610000  -974.59517     -159.4596       218.77603      0.5          
    611000  -923.50555     -464.47074      217.62804      0.5          
    612000  -845.46918      77.119412      217.97485      0.5          
    613000  -913.734        53.909106      216.63693      0.5          
    614000  -833.6893      -110.21965      219.39013      0.5          
    615000  -830.42096     -70.064893      221.92708      0.5          
    616000  -891.947       -137.25357      219.60969      0.5          
    617000  -926.65412      98.622344      220.4879       0.5          
    618000  -905.77861     -66.003467      217.55445      0.5          
    619000  -996.83736      192.44082      217.55399      0.5          
    620000  -881.42764      53.435278      220.8581       0.5          
    621000  -808.86749     -180.42816      218.965        0.5          
    622000  -834.05464      167.67676      221.04358      0.5          
    623000  -922.99212      43.398577      216.04258      0.5          
    624000  -828.98182     -410.41397      220.91866      0.5          
    625000  -919.13766     -39.6186        217.67058      0.5          
    626000  -778.08071      349.17855      223.02287      0.5          
    627000  -857.25613     -101.83643      219.391        0.5          
    628000  -882.34269      236.27564      220.44178      0.5          
    629000  -924.48692      113.77886      218.95909      0.5          
    630000  -875.21732     -52.387613      221.7726       0.5          
    631000  -889.5046       3.2397952      220.18277      0.5          
    632000  -953.20646     -134.80302      219.69304      0.5          
    633000  -956.03822     -38.282741      220.98968      0.5          
    634000  -909.49349      59.765893      218.86313      0.5          
    635000  -867.77865      367.80682      220.90668      0.5          
    636000  -1015.5487     -38.004526      214.19204      0.5          
    637000  -838.80128     -132.92327      226.27539      0.5          
    638000  -870.47328     -214.71714      222.32569      0.5          
    639000  -836.09435      21.792404      220.44296      0.5          
    640000  -882.40433      49.553375      217.70791      0.5          
    641000  -764.31304      332.39101      224.21629      0.5          
    642000  -748.40949      94.919017      222.49102      0.5          
    643000  -840.5447      -279.33191      223.34579      0.5          
    644000  -843.97166     -166.01631      220.72132      0.5          
    645000  -835.55436      195.39119      220.09155      0.5          
    646000  -859.08203      289.67056      220.92396      0.5          
    647000  -803.06838      11.32141       222.73213      0.5          
    648000  -916.86723     -149.54417      219.09045      0.5          
    649000  -777.48367      42.121195      220.99133      0.5          
    650000  -847.58141     -19.490607      219.79312      0.5          
    651000  -913.10596     -140.06563      219.02684      0.5          
    652000  -798.86812     -95.197569      220.31685      0.5          
    653000  -942.64035      63.351174      215.61859      0.5          
    654000  -905.31641     -53.485349      220.16206      0.5          
    655000  -915.74254      67.337596      220.00727      0.5          
    656000  -877.75213      31.962438      222.55284      0.5          
    657000  -954.75044     -317.14876      216.95171      0.5          
    658000  -941.64308      110.99602      219.94423      0.5          
    659000  -906.464       -130.60468      220.4351       0.5          
    660000  -906.06832     -239.89199      220.32856      0.5          
    661000  -802.32234     -124.16393      223.81408      0.5          
    662000  -891.72373      50.482867      219.1244       0.5          
    663000  -893.52658      118.37651      217.49296      0.5          
    664000  -945.36201     -133.24506      220.33574      0.5          
    665000  -889.8372       159.87258      220.86567      0.5          
    666000  -980.17667      189.91765      219.654        0.5          
    667000  -869.49049      77.591007      221.3385       0.5          
    668000  -981.64679     -151.78356      222.14463      0.5          
    669000  -1008.0597      82.860458      217.57421      0.5          
    670000  -915.42032      302.74125      220.46867      0.5          
    671000  -968.61016     -195.63877      218.48965      0.5          
    672000  -920.4485       80.043558      220.29307      0.5          
    673000  -985.51252     -169.3104       216.56386      0.5          
    674000  -900.60184      13.499787      221.1422       0.5          
    675000  -952.76674     -59.443993      218.11637      0.5          
    676000  -1058.1568     -117.19249      217.12339      0.5          
    677000  -1041.2524     -77.71603       217.69899      0.5          
    678000  -951.07614      19.945284      221.91158      0.5          
    679000  -943.0018      -3.4296682      220.37984      0.5          
    680000  -892.73825     -44.917559      223.18997      0.5          
    681000  -968.55899      256.35125      219.09537      0.5          
    682000  -933.32649     -101.7043       220.70558      0.5          
    683000  -979.44915      5.6361887      216.83253      0.5          
    684000  -1047.5504      36.827119      216.06147      0.5          
    685000  -916.10476      76.076588      219.10877      0.5          
    686000  -999.44766      358.72723      221.13427      0.5          
    687000  -945.7258      -284.9131       216.88051      0.5          
    688000  -986.51369      89.830738      217.35279      0.5          
    689000  -830.9541       92.780044      218.86404      0.5          
    690000  -860.85944     -43.526522      220.9536       0.5          
    691000  -823.5426       201.79707      221.9967       0.5          
    692000  -1009.2072     -46.053773      215.97188      0.5          
    693000  -856.7507       138.6214       219.9284       0.5          
    694000  -885.94632      248.26319      219.71724      0.5          
    695000  -883.02864     -422.9946       220.61579      0.5          
    696000  -756.58673     -36.672486      224.14646      0.5          
    697000  -789.08195      186.89652      222.84965      0.5          
    698000  -861.3598      -147.57588      220.02903      0.5          
    699000  -817.79976      236.9504       221.48169      0.5          
    700000  -938.43702     -34.703111      218.65113      0.5          
    701000  -823.6458       26.250833      221.30026      0.5          
    702000  -859.00532     -144.20464      220.67174      0.5          
    703000  -884.42863      62.266483      224.5641       0.5          
    704000  -838.37645      65.190654      219.82562      0.5          
    705000  -953.93125      8.3872807      217.03947      0.5          
    706000  -856.36852      79.466408      222.33666      0.5          
    707000  -879.91515      45.591546      217.17984      0.5          
    708000  -869.14772     -108.05176      220.59784      0.5          
    709000  -854.71697     -196.70207      221.49225      0.5          
    710000  -830.86168      83.009942      222.32583      0.5          
    711000  -811.84809      126.66537      219.74949      0.5          
    712000  -838.4261       112.75565      221.11069      0.5          
    713000  -938.34215     -6.9938259      218.81377      0.5          
    714000  -851.82382     -167.67197      220.77121      0.5          
    715000  -899.9083       167.41859      219.48238      0.5          
    716000  -988.10384      257.80335      218.06498      0.5          
    717000  -918.02955      13.30366       218.62242      0.5          
    718000  -925.31379      178.63834      220.60549      0.5          
    719000  -1026.0524      39.695436      217.43548      0.5          
    720000  -1030.3961     -156.72005      216.39896      0.5          
    721000  -932.42541      202.92662      221.0009       0.5          
    722000  -907.39759     -81.506499      221.53311      0.5          
    723000  -937.15058      86.468998      217.97734      0.5          
    724000  -879.99038      175.1738       220.68955      0.5          
    725000  -996.66908      54.598641      218.52783      0.5          
    726000  -1002.7505      143.67626      223.53389      0.5          
    727000  -1067.5412      142.12277      216.16039      0.5          
    728000  -1059.0138     -51.727791      217.51587      0.5          
    729000  -848.31693     -189.39601      223.41528      0.5          
    730000  -890.97485      41.987793      222.9143       0.5          
    731000  -932.39252      112.04149      221.75821      0.5          
    732000  -1092.1957      9.2727407      215.18172      0.5          
    733000  -975.12906      50.897788      220.92085      0.5          
    734000  -873.67963     -106.49078      219.4497       0.5          
    735000  -904.12293     -123.87645      222.24672      0.5          
    736000  -899.93274      20.027496      222.19055      0.5          
    737000  -908.29716      214.6412       220.90757      0.5          
    738000  -957.71478     -104.03985      220.47818      0.5          
    739000  -946.30625      48.456361      219.15081      0.5          
    740000  -909.71673      449.89157      222.46236      0.5          
    741000  -1024.5449      12.491213      216.87778      0.5          
    742000  -847.44091     -154.46459      223.90138      0.5          
    743000  -865.44136     -130.5705       222.16663      0.5          
    744000  -981.82054     -55.65655       217.24392      0.5          
    745000  -908.75696      45.90071       220.75297      0.5          
    746000  -751.05891      63.928508      223.97297      0.5          
    747000  -895.89294     -166.8603       222.3621       0.5          
    748000  -913.76733      181.52869      219.29789      0.5          
    749000  -879.91545     -81.773101      220.11263      0.5          
    750000  -829.18874     -213.21801      221.12615      0.5          
    751000  -841.08356     -67.649011      219.70827      0.5          
    752000  -739.38304      191.44691      223.83534      0.5          
    753000  -955.0731      -3.9716315      219.08128      0.5          
    754000  -983.24473     -217.57933      217.31871      0.5          
    755000  -796.18401     -81.432979      220.954        0.5          
    756000  -942.63716     -20.497018      217.56627      0.5          
    757000  -892.46018      27.535841      217.794        0.5          
    758000  -863.86037      23.956728      219.49064      0.5          
    759000  -711.56259      29.739824      222.53383      0.5          
    760000  -780.82301     -120.52471      222.52454      0.5          
    761000  -816.83505      18.001172      218.30561      0.5          
    762000  -710.62379      139.08849      221.58403      0.5          
    763000  -806.02685     -75.057513      220.69148      0.5          
    764000  -781.75315      15.769682      220.18072      0.5          
    765000  -830.62707      96.3017        221.44374      0.5          
    766000  -843.36552      130.33918      219.4095       0.5          
    767000  -827.60037      44.133416      217.76943      0.5          
    768000  -869.70498      9.4532391      220.08618      0.5          
    769000  -819.91074     -220.69115      223.63048      0.5          
    770000  -891.46073     -235.36244      219.7751       0.5          
    771000  -778.94687     -181.69558      219.77548      0.5          
    772000  -861.02594      242.2791       217.60432      0.5          
    773000  -814.51736      258.8336       223.18218      0.5          
    774000  -938.96645     -100.10318      219.56789      0.5          
    775000  -838.70296     -18.702302      218.65202      0.5          
    776000  -865.78539      266.73834      218.86856      0.5          
    777000  -882.72595      245.3434       222.42441      0.5          
    778000  -849.96874     -312.07057      220.35284      0.5          
    779000  -853.13446     -200.77688      222.09571      0.5          
    780000  -908.37779      53.92844       219.35897      0.5          
    781000  -844.56473      229.63659      220.34813      0.5          
    782000  -950.46082      24.803601      217.83055      0.5          
    783000  -820.8863      -76.987346      220.10519      0.5          
    784000  -915.57688      25.911283      220.09637      0.5          
    785000  -894.76865     -27.258468      219.28189      0.5          
    786000  -810.34624     -171.39191      223.38055      0.5          
    787000  -933.31131      124.53441      217.44096      0.5          
    788000  -854.87831     -63.100437      218.78406      0.5          
    789000  -805.05322      339.11139      220.39761      0.5          
    790000  -895.0252      -179.36898      216.45856      0.5          
    791000  -823.84075     -290.17368      220.68648      0.5          
    792000  -771.04092     -14.470402      222.54865      0.5          
    793000  -765.12451     -144.65314      221.95608      0.5          
    794000  -757.42811      15.55172       219.98039      0.5          
    795000  -744.60796      141.0296       220.90951      0.5          
    796000  -705.03716     -59.840051      222.43817      0.5          
    797000  -767.35802      55.656023      217.02311      0.5          
    798000  -735.15065     -98.752441      222.69375      0.5          
    799000  -847.84684     -50.041121      218.65921      0.5          
    800000  -745.88881      424.1721       221.27206      0.5          
    801000  -820.83517     -90.040877      221.51038      0.5          
    802000  -735.84252     -149.66414      225.67897      0.5          
    803000  -854.34162      38.879501      218.28082      0.5          
    804000  -809.88646     -150.62521      218.43427      0.5          
    805000  -846.36947     -21.041032      217.7159       0.5          
    806000  -852.11535     -87.213975      219.73054      0.5          
    807000  -881.47788     -245.15351      218.9661       0.5          
    808000  -783.2976       173.93276      219.67486      0.5          
    809000  -762.15882      62.159437      220.77753      0.5          
    810000  -957.865       -381.01856      216.45636      0.5          
    811000  -834.18045     -156.22176      222.21447      0.5          
    812000  -836.79503      127.65777      218.93446      0.5          
    813000  -808.28239     -44.085446      224.15447      0.5          
    814000  -884.79032      53.715034      218.65089      0.5          
    815000  -845.65564     -27.49598       221.19672      0.5          
    816000  -906.03753      114.28375      218.22001      0.5          
    817000  -970.95506     -11.869496      218.44327      0.5          
    818000  -808.149       -41.206151      227.10995      0.5          
    819000  -916.1957       106.71971      216.68456      0.5          
    820000  -892.60175      46.427601      218.81025      0.5          
    821000  -904.59896     -246.75005      218.73566      0.5          
    822000  -827.76274     -255.6275       221.06857      0.5          
    823000  -901.7039       209.25777      219.22122      0.5          
    824000  -889.35272      130.89031      221.37749      0.5          
    825000  -936.97899     -201.96676      221.58967      0.5          
    826000  -708.8942       31.446133      224.05558      0.5          
    827000  -892.69156      138.7293       218.83151      0.5          
    828000  -862.1175      -253.05975      220.98636      0.5          
    829000  -808.28699     -287.13832      221.86813      0.5          
    830000  -875.88709     -42.418345      218.99622      0.5          
    831000  -850.34317      91.718764      219.91683      0.5          
    832000  -837.78466     -226.23856      221.91558      0.5          
    833000  -808.49453      43.70977       221.19773      0.5          
    834000  -759.48677      43.628315      221.00361      0.5          
    835000  -826.44927     -552.91732      219.82452      0.5          
    836000  -818.92211     -434.11963      216.08909      0.5          
    837000  -877.60149      45.264977      216.72345      0.5          
    838000  -718.97756     -20.886693      223.02758      0.5          
    839000  -859.51534      161.94536      218.64333      0.5          
    840000  -825.56609     -136.54807      215.65641      0.5          
    841000  -659.50213     -29.397684      224.55488      0.5          
    842000  -765.77061     -67.772241      218.38138      0.5          
    843000  -786.77313     -131.29644      220.31664      0.5          
    844000  -699.75092      72.097417      223.25478      0.5          
    845000  -739.21059     -95.944388      220.68271      0.5          
    846000  -743.81937      127.16017      221.73855      0.5          
    847000  -912.36654     -84.180989      217.20718      0.5          
    848000  -792.53793      69.267167      220.35075      0.5          
    849000  -803.63726      221.71508      221.46144      0.5          
    850000  -847.14995      170.69863      221.00001      0.5          
    851000  -688.15457     -197.181        226.70468      0.5          
    852000  -650.28491     -71.584569      222.03641      0.5          
    853000  -768.92679      35.46958       219.88792      0.5          
    854000  -855.02581     -267.54897      218.6438       0.5          
    855000  -787.50489     -39.33067       221.70612      0.5          
    856000  -886.89937      215.88962      216.93393      0.5          
    857000  -823.11331      38.495289      220.77564      0.5          
    858000  -801.46121     -160.74537      223.3259       0.5          
    859000  -987.04504      34.869145      217.29061      0.5          
    860000  -944.391        14.307336      216.17625      0.5          
    861000  -786.10174     -111.09189      223.09825      0.5          
    862000  -889.41497     -167.09908      217.99975      0.5          
    863000  -845.57244     -26.319739      219.56102      0.5          
    864000  -808.48878      55.355174      219.45992      0.5          
    865000  -802.14017      28.919038      220.39407      0.5          
    866000  -823.18581      3.8040841      221.03538      0.5          
    867000  -689.38285      112.02302      224.84316      0.5          
    868000  -837.37942     -85.291087      219.22863      0.5          
    869000  -798.37124     -78.250495      220.48176      0.5          
    870000  -749.91676      125.46138      224.60296      0.5          
    871000  -766.13032      152.90168      221.09925      0.5          
    872000  -799.62024      7.2745418      222.8606       0.5          
    873000  -923.24436     -44.33683       218.53166      0.5          
    874000  -786.81847      116.0832       222.20038      0.5          
    875000  -834.36347     -7.4133617      220.30341      0.5          
    876000  -811.26791     -207.29192      219.67717      0.5          
    877000  -793.40393     -22.404882      223.34461      0.5          
    878000  -874.25801      102.49759      215.94641      0.5          
    879000  -816.26391     -20.827293      219.35976      0.5          
    880000  -881.59382     -205.8945       218.21928      0.5          
    881000  -809.54154     -93.28499       219.5636       0.5          
    882000  -820.55782     -42.288816      222.07784      0.5          
    883000  -733.15609     -193.73402      224.85276      0.5          
    884000  -808.10146     -58.009033      218.72015      0.5          
    885000  -769.23613     -103.75705      221.07727      0.5          
    886000  -808.62239     -164.20289      224.12766      0.5          
    887000  -822.86898      79.213135      220.04554      0.5          
    888000  -796.48653      94.634514      218.97438      0.5          
    889000  -842.8197      -38.956776      219.28752      0.5          
    890000  -810.88774      39.577607      217.905        0.5          
    891000  -811.20102      192.81092      223.84698      0.5          
    892000  -924.69775     -84.774325      216.54935      0.5          
    893000  -879.07778     -90.775036      217.90965      0.5          
    894000  -908.78317      243.05737      218.0046       0.5          
    895000  -990.0929       244.26599      215.8446       0.5          
    896000  -973.46783      11.375945      219.01185      0.5          
    897000  -729.44223     -48.654049      221.39596      0.5          
    898000  -849.01203      99.335423      220.19651      0.5          
    899000  -858.69126     -221.04177      220.23355      0.5          
    900000  -910.66405     -19.90506       219.67505      0.5          
    901000  -887.17652     -21.637193      219.54374      0.5          
    902000  -833.82097      157.07716      222.34685      0.5          
    903000  -909.92989      107.81608      219.46541      0.5          
    904000  -933.24494      1.6325036      219.02262      0.5          
    905000  -853.75623      270.48054      221.98652      0.5          
    906000  -906.48874     -97.4566        218.06096      0.5          
    907000  -855.57618     -31.972367      220.86449      0.5          
    908000  -909.60546      151.31379      218.56325      0.5          
    909000  -875.55914     -141.56878      218.52667      0.5          
    910000  -731.27396      46.705091      221.93524      0.5          
    911000  -760.70065      55.726521      221.0782       0.5          
    912000  -872.69448      92.143781      220.02816      0.5          
    913000  -755.31436      266.77139      221.38151      0.5          
    914000  -826.00699      102.54923      220.63103      0.5          
    915000  -816.84093      54.384677      220.40317      0.5          
    916000  -793.37601      160.86657      219.61245      0.5          
    917000  -778.67653     -114.4496       221.01482      0.5          
    918000  -835.65156     -256.53726      218.14478      0.5          
    919000  -804.20378      51.215844      219.6005       0.5          
    920000  -911.15429     -163.12679      218.67822      0.5          
    921000  -748.04959     -142.19416      222.20235      0.5          
    922000  -710.78553     -241.42535      222.72986      0.5          
    923000  -875.84149     -23.515766      218.52051      0.5          
    924000  -848.17408      235.2267       217.34081      0.5          
    925000  -821.56661     -55.732935      217.40021      0.5          
    926000  -744.65289     -211.99316      221.18079      0.5          
    927000  -877.3894       32.937224      220.20481      0.5          
    928000  -740.13314     -75.342141      222.64479      0.5          
    929000  -806.16689      23.723429      220.17569      0.5          
    930000  -939.197        126.57767      216.12255      0.5          
    931000  -873.77321      124.31902      219.21572      0.5          
    932000  -833.54337     -72.250166      219.51804      0.5          
    933000  -831.98727      101.27152      220.52048      0.5          
    934000  -874.31155      4.6623975      216.24864      0.5          
    935000  -938.66334     -189.0711       215.90964      0.5          
    936000  -893.33856     -143.28593      220.50425      0.5          
    937000  -929.57648      324.73596      217.73915      0.5          
    938000  -920.92927      52.984169      221.74766      0.5          
    939000  -921.91895     -12.423662      220.28737      0.5          
    940000  -953.79749      274.13457      222.01931      0.5          
    941000  -1009.2826     -296.55087      215.8351       0.5          
    942000  -955.86885     -59.711732      221.22686      0.5          
    943000  -914.65318      89.602298      220.06128      0.5          
    944000  -862.70985     -222.32405      222.01166      0.5          
    945000  -835.44176      95.513577      219.67174      0.5          
    946000  -791.28289     -21.972469      221.82027      0.5          
    947000  -849.84137     -152.96424      220.44641      0.5          
    948000  -868.08079      310.73306      222.91283      0.5          
    949000  -784.2184      -262.06144      219.33525      0.5          
    950000  -922.95786     -380.94486      218.58697      0.5          
    951000  -803.09152      176.21891      221.76613      0.5          
    952000  -741.58304      123.42072      220.65466      0.5          
    953000  -796.58136     -69.464921      223.93909      0.5          
    954000  -887.383       -171.66909      221.57721      0.5          
    955000  -801.64878     -149.29982      221.21052      0.5          
    956000  -785.84904     -17.487867      221.63672      0.5          
    957000  -772.23511      242.55571      220.28437      0.5          
    958000  -754.92501      182.95099      221.47705      0.5          
    959000  -737.51393     -404.97866      220.42457      0.5          
    960000  -711.19547      83.475736      221.47112      0.5          
    961000  -784.41899      0.92510596     220.85197      0.5          
    962000  -823.9249      -57.194642      215.63063      0.5          
    963000  -815.8977       85.263013      219.62477      0.5          
    964000  -770.03014     -25.883508      222.50543      0.5          
    965000  -843.52202     -179.73222      221.78556      0.5          
    966000  -884.96794      84.201185      219.76842      0.5          
    967000  -794.5435      -276.46366      221.34007      0.5          
    968000  -791.3897      -172.51361      221.65749      0.5          
    969000  -713.04137      416.86945      220.83863      0.5          
    970000  -679.50698     -212.9873       223.60843      0.5          
    971000  -824.57185     -313.9875       219.23402      0.5          
    972000  -806.34951     -84.830032      218.47215      0.5          
    973000  -824.64837     -54.297131      218.48828      0.5          
    974000  -917.06872     -1.4086816      216.20683      0.5          
    975000  -884.35212      1.9703296      216.26145      0.5          
    976000  -699.29498      270.01516      223.01899      0.5          
    977000  -828.25904     -95.28995       219.90632      0.5          
    978000  -860.14078      160.37718      217.63882      0.5          
    979000  -781.98157      4.5978832      218.96933      0.5          
    980000  -806.90339     -208.56819      219.43433      0.5          
    981000  -787.22076      115.08096      220.89803      0.5          
    982000  -790.26934      45.270278      219.89247      0.5          
    983000  -777.56556     -83.146321      220.60975      0.5          
    984000  -868.79034     -141.51625      218.85345      0.5          
    985000  -786.53253      99.529219      225.3469       0.5          
    986000  -800.98745     -80.719857      219.2244       0.5          
    987000  -757.05775      200.27874      221.50434      0.5          
    988000  -924.64069     -14.625275      216.08176      0.5          
    989000  -890.86679     -143.28011      219.95516      0.5          
    990000  -816.34926      151.05175      220.10679      0.5          
    991000  -761.06653      76.006509      220.92877      0.5          
    992000  -802.66204     -225.65561      219.54492      0.5          
    993000  -844.72946     -15.926035      217.84942      0.5          
    994000  -773.41724      138.16697      222.06794      0.5          
    995000  -814.26784     -176.09858      219.53756      0.5          
    996000  -839.77219      2.0783377      220.28094      0.5          
    997000  -943.55707      19.396255      217.68609      0.5          
    998000  -749.90571      79.209509      222.81842      0.5          
    999000  -766.89092     -12.207346      221.62855      0.5          
   1000000  -773.82619     -66.745978      221.59557      0.5          
   1001000  -835.52076     -36.707116      216.25885      0.5          
   1002000  -889.45511      152.39797      219.69037      0.5          
   1003000  -876.88461      73.086651      220.37944      0.5          
   1004000  -911.61152     -78.823765      217.52183      0.5          
   1005000  -835.37049     -59.711738      221.91597      0.5          
   1006000  -846.96017      58.892436      221.42548      0.5          
   1007000  -809.21446      133.03186      223.67565      0.5          
   1008000  -839.94053     -103.0954       217.18215      0.5          
   1009000  -865.2661      -28.594855      216.08642      0.5          
   1010000  -704.43089     -53.672826      223.35123      0.5          
   1011000  -936.35351     -179.71951      218.40685      0.5          
   1012000  -851.37604     -25.575452      221.45002      0.5          
   1013000  -771.38708      100.66327      219.93576      0.5          
   1014000  -758.13578      44.892057      219.72117      0.5          
   1015000  -969.08943     -136.43829      217.09624      0.5          
   1016000  -725.89156     -73.298103      222.33218      0.5          
   1017000  -820.14255      169.05493      220.82588      0.5          
   1018000  -867.81222     -102.29093      218.57762      0.5          
   1019000  -952.56509      135.28423      217.20663      0.5          
   1020000  -782.07783      84.454746      224.43521      0.5          
   1021000  -860.59552     -93.511915      220.83395      0.5          
   1022000  -883.25808      73.232082      217.70835      0.5          
   1023000  -913.13746      108.63356      219.34667      0.5          
   1024000  -871.00397      45.425293      221.1284       0.5          
   1025000  -836.90029     -98.179988      219.7462       0.5          
   1026000  -920.18868      17.567103      218.62372      0.5          
   1027000  -823.88973     -130.84673      219.1988       0.5          
   1028000  -836.40482     -53.337143      220.49261      0.5          
   1029000  -874.31267     -124.15248      219.70305      0.5          
[...]
   3160000  -720.02406      242.86079      221.29233      0.5          
   3161000  -719.86221     -180.26371      218.26313      0.5          
   3162000  -720.05055      156.01476      219.17867      0.5          
   3163000  -719.84922      163.26446      218.10427      0.5          
   3164000  -719.98122     -86.246752      220.66012      0.5          
   3165000  -719.89279      59.644342      220.00743      0.5          
   3166000  -719.68091      48.555136      219.10059      0.5          
   3167000  -719.53709     -9.0600147      218.1607       0.5          
   3168000  -719.99188      9.3198914      219.67582      0.5          
   3169000  -719.84291      270.13746      217.72152      0.5          
   3170000  -719.61442     -49.149603      217.75929      0.5          
   3171000  -719.65172      60.201549      217.42364      0.5          
   3172000  -719.75356     -7.77696        218.78739      0.5          
   3173000  -719.83415      107.18081      218.14524      0.5          
   3174000  -719.6945      -17.16843       218.33694      0.5          
   3175000  -719.81843     -56.713603      218.00045      0.5          
   3176000  -719.7554      -64.987267      220.33363      0.5          
   3177000  -719.62312     -252.72678      218.90616      0.5          
   3178000  -719.62432     -177.79631      217.85624      0.5          
   3179000  -719.44528      128.13027      217.44255      0.5          
   3180000  -719.67073     -97.593957      218.56934      0.5          
   3181000  -720.02882     -140.11706      216.96465      0.5          
   3182000  -719.9942      -16.769607      219.94604      0.5          
   3183000  -719.71005     -118.29545      217.55977      0.5          
   3184000  -719.67452     -72.016415      217.20751      0.5          
   3185000  -719.92445      83.21018       216.27426      0.5          
   3186000  -719.86569     -222.16132      216.03757      0.5          
   3187000  -719.53609     -101.61537      216.25111      0.5          
   3188000  -719.81582      290.52057      217.05814      0.5          
   3189000  -719.68954     -55.452551      217.01592      0.5          
   3190000  -719.53467     -192.67459      218.15658      0.5          
   3191000  -719.65744     -124.20392      219.84274      0.5          
   3192000  -719.85975      320.29147      220.49346      0.5          
   3193000  -719.74657      191.54095      221.33501      0.5          
   3194000  -719.57867     -157.01988      220.01444      0.5          
   3195000  -719.76624     -0.87624813     219.85458      0.5          
   3196000  -719.81027      80.709185      220.01735      0.5          
   3197000  -719.68522      95.450749      217.86937      0.5          
   3198000  -720.06305      170.87089      218.85961      0.5          
   3199000  -720.01717     -200.48575      218.28562      0.5          
   3200000  -720.09879     -128.01442      218.78406      0.5          
   3201000  -719.63571      306.66893      215.46389      0.5          
   3202000  -719.45943      126.4105       218.19096      0.5          
   3203000  -719.75517     -159.66365      222.05375      0.5          
   3204000  -720.00984     -80.747502      219.61321      0.5          
   3205000  -719.68518      230.75646      215.82688      0.5          
   3206000  -719.45532      139.28435      216.28568      0.5          
   3207000  -719.79         66.721926      216.98383      0.5          
   3208000  -720.33162     -7.1405885      216.516        0.5          
   3209000  -719.92666     -130.50045      216.101        0.5          
   3210000  -719.50832     -151.48198      214.33663      0.5          
   3211000  -719.99168     -155.81898      216.93971      0.5          
   3212000  -720.09647      251.91378      214.33794      0.5          
   3213000  -719.85998      242.0033       217.64841      0.5          
   3214000  -719.73308      163.83611      214.04435      0.5          
   3215000  -719.61488     -296.8175       217.79128      0.5          
   3216000  -719.75275     -31.04938       219.11246      0.5          
   3217000  -719.61715      114.14874      217.72641      0.5          
   3218000  -719.46037      6.3678709      218.64923      0.5          
   3219000  -718.9845      -15.171584      215.6193       0.5          
   3220000  -719.42459      315.92729      217.67368      0.5          
   3221000  -719.4327       42.766416      217.72069      0.5          
   3222000  -719.43819      203.62747      219.39329      0.5          
   3223000  -719.66497      117.04161      219.77978      0.5          
   3224000  -719.31047     -247.42742      220.10664      0.5          
   3225000  -719.56408      263.70686      220.29937      0.5          
   3226000  -719.42943      41.872         219.46987      0.5          
   3227000  -719.47097     -232.9993       218.56378      0.5          
   3228000  -718.85189      89.770928      217.84315      0.5          
   3229000  -719.13486      99.571465      215.77145      0.5          
   3230000  -719.19788     -319.94815      218.9382       0.5          
   3231000  -719.24671     -327.26292      219.70389      0.5          
   3232000  -719.29914      172.32924      218.89563      0.5          
   3233000  -719.08398     -78.335217      217.19395      0.5          
   3234000  -719.33224     -128.76695      216.20811      0.5          
   3235000  -719.17563     -213.18881      216.36553      0.5          
   3236000  -718.9776       139.35527      213.7021       0.5          
   3237000  -719.40136      177.09144      218.61524      0.5          
   3238000  -719.22305     -122.80015      216.7222       0.5          
   3239000  -719.08995      146.64714      217.32586      0.5          
   3240000  -719.0875       154.39858      216.67482      0.5          
   3241000  -719.31973     -187.7988       217.99485      0.5          
   3242000  -719.66658      191.29213      217.61198      0.5          
   3243000  -719.44075      109.73601      216.23741      0.5          
   3244000  -719.24036     -187.82963      215.65223      0.5          
   3245000  -719.28807     -11.333412      216.06251      0.5          
   3246000  -719.3222      -149.94904      219.77809      0.5          
   3247000  -719.3697      -178.2819       215.32657      0.5          
   3248000  -719.29884      27.06402       213.28362      0.5          
   3249000  -719.10712      123.90116      215.73844      0.5          
   3250000  -719.09243     -250.91853      216.47279      0.5          
   3251000  -719.39762      154.74872      217.49216      0.5          
   3252000  -719.41028      58.279425      217.78647      0.5          
   3253000  -719.33719      73.026768      218.00077      0.5          
   3254000  -719.06714      92.122858      218.70837      0.5          
   3255000  -719.19443      10.605246      218.88365      0.5          
   3256000  -719.0254       42.720716      219.2365       0.5          
   3257000  -719.06337     -126.49477      216.68762      0.5          
   3258000  -718.97641     -101.98196      219.60623      0.5          
   3259000  -719.14986     -51.415119      219.38852      0.5          
   3260000  -719.00652      371.03139      216.68492      0.5          
   3261000  -718.87152      55.898653      218.36186      0.5          
   3262000  -718.94452     -112.49821      219.90548      0.5          
   3263000  -718.81312     -33.866804      216.26771      0.5          
   3264000  -719.17321      21.903362      219.59611      0.5          
   3265000  -719.08805      258.50152      218.27341      0.5          
   3266000  -719.13427      79.869373      217.96122      0.5          
   3267000  -719.07062     -180.91765      219.58399      0.5          
   3268000  -719.18879     -57.91185       217.19686      0.5          
   3269000  -719.18592      151.15963      217.14712      0.5          
   3270000  -719.10025     -49.405252      217.17738      0.5          
   3271000  -719.21025     -98.90253       217.38387      0.5          
   3272000  -719.16175     -8.1598787      216.89147      0.5          
   3273000  -719.33567      19.288614      218.09578      0.5          
   3274000  -719.22245      53.510359      217.9494       0.5          
   3275000  -719.13381     -102.37114      218.44692      0.5          
   3276000  -718.65087      104.65115      217.7024       0.5          
   3277000  -718.64852     -62.669436      215.19193      0.5          
   3278000  -718.78529     -318.64548      218.32209      0.5          
   3279000  -718.87636     -15.784509      217.6253       0.5          
   3280000  -718.61849      289.31809      216.545        0.5          
   3281000  -718.8262      -230.6394       216.54458      0.5          
   3282000  -718.61081     -178.77086      218.60428      0.5          
   3283000  -718.60025     -54.110621      217.89084      0.5          
   3284000  -718.56047      145.42968      216.49039      0.5          
   3285000  -718.25218     -318.47981      218.45804      0.5          
   3286000  -718.26985      62.196025      218.98252      0.5          
   3287000  -718.41613      266.75894      218.10713      0.5          
   3288000  -718.54102     -0.12987061     222.26844      0.5          
   3289000  -718.32329      17.59958       219.41137      0.5          
   3290000  -718.29669      190.62766      219.6818       0.5          
   3291000  -718.38531     -124.13711      218.05018      0.5          
   3292000  -718.48268     -19.539409      218.93328      0.5          
   3293000  -718.52048      219.99351      221.84502      0.5          
   3294000  -718.68556     -63.436724      220.99827      0.5          
   3295000  -718.42676      60.49165       220.77552      0.5          
   3296000  -718.25006      391.63938      218.70762      0.5          
   3297000  -718.61344      55.947989      220.65778      0.5          
   3298000  -718.64842     -72.96799       221.48265      0.5          
   3299000  -718.65871     -211.51313      223.10707      0.5          
   3300000  -718.17328     -2.5228323      218.45517      0.5          
   3301000  -718.50334      90.562994      221.58672      0.5          
   3302000  -718.13656      202.99803      219.84369      0.5          
   3303000  -718.52348     -88.734318      217.74847      0.5          
   3304000  -718.51248      30.179146      218.04484      0.5          
   3305000  -718.18741     -199.2875       219.39362      0.5          
   3306000  -718.08235     -112.08841      219.04372      0.5          
   3307000  -718.33742      73.669043      216.81344      0.5          
   3308000  -718.46338     -216.76068      220.03424      0.5          
   3309000  -718.25567     -24.496953      216.42822      0.5          
   3310000  -718.27396      81.302839      213.36089      0.5          
   3311000  -718.31607     -156.62307      218.59585      0.5          
   3312000  -718.55897      23.522893      218.37211      0.5          
   3313000  -718.80972      235.05148      218.08016      0.5          
   3314000  -718.20351      139.49216      215.51226      0.5          
   3315000  -718.02598     -111.35686      217.95354      0.5          
   3316000  -718.24791     -86.827043      218.14203      0.5          
   3317000  -718.53307      8.3618627      217.8396       0.5          
   3318000  -718.63694     -108.31067      217.77627      0.5          
   3319000  -718.39959     -108.0932       217.16474      0.5          
   3320000  -718.29646      257.96167      213.68492      0.5          
   3321000  -718.41951      109.67309      217.26845      0.5          
   3322000  -718.55306      30.970971      216.62493      0.5          
   3323000  -718.51707     -124.08579      218.62961      0.5          
   3324000  -718.23796     -107.43995      217.62623      0.5          
   3325000  -717.91424      76.771168      217.00507      0.5          
   3326000  -718.27769     -130.60155      218.96439      0.5          
   3327000  -718.22418     -150.94083      219.08198      0.5          
   3328000  -718.16224      246.75882      218.48562      0.5          
   3329000  -717.85235     -236.86891      217.80366      0.5          
   3330000  -717.83938     -44.539442      218.58443      0.5          
   3331000  -717.83284      82.16696       219.05379      0.5          
   3332000  -717.87093     -247.5153       221.88139      0.5          
   3333000  -717.71359      115.59285      221.0069       0.5          
   3334000  -717.5761       69.825222      219.06505      0.5          
   3335000  -717.80936      161.19669      220.81227      0.5          
   3336000  -717.80451     -63.264986      218.17939      0.5          
   3337000  -717.89304     -151.86582      222.77434      0.5          
   3338000  -717.63203     -156.22829      220.76881      0.5          
   3339000  -717.50911      122.94993      218.71195      0.5          
   3340000  -717.90615      184.69019      220.65601      0.5          
   3341000  -718.05419     -162.15451      221.42099      0.5          
   3342000  -717.86711     -122.43317      218.78974      0.5          
   3343000  -717.9158       158.5862       218.3617       0.5          
   3344000  -718.22608      174.26191      218.35595      0.5          
   3345000  -718.12608      123.05928      221.01847      0.5          
   3346000  -718.20764     -191.62398      220.54616      0.5          
   3347000  -718.0873       183.54713      219.30279      0.5          
   3348000  -718.15324      63.053718      218.4066       0.5          
   3349000  -718.18075     -144.65383      216.76405      0.5          
   3350000  -718.06901     -245.35075      217.62397      0.5          
   3351000  -717.73982     -90.668402      215.60997      0.5          
   3352000  -718.0198       56.895305      215.624        0.5          
   3353000  -717.84335     -48.216407      217.75822      0.5          
   3354000  -717.7912       72.905675      215.36734      0.5          
   3355000  -717.74407      37.536714      215.38574      0.5          
   3356000  -717.76015     -356.96263      216.56729      0.5          
   3357000  -718.16219      6.9006076      218.63827      0.5          
   3358000  -717.97936      173.76149      213.55792      0.5          
   3359000  -717.88413     -119.84092      216.02607      0.5          
   3360000  -717.5849      -52.909782      218.91283      0.5          
   3361000  -717.45947     -175.10698      217.06629      0.5          
   3362000  -717.76246      129.7586       217.38865      0.5          
   3363000  -717.80618      221.43404      215.95123      0.5          
   3364000  -717.71648     -149.92359      218.31157      0.5          
   3365000  -717.72371     -167.81707      216.57583      0.5          
   3366000  -717.5768      -104.5812       216.40719      0.5          
   3367000  -717.57339     -96.923387      218.27766      0.5          
   3368000  -717.82314      7.9754728      218.87642      0.5          
   3369000  -717.66481      130.58809      217.54393      0.5          
   3370000  -717.74072     -197.84595      220.27261      0.5          
   3371000  -717.66129      168.8537       218.17826      0.5          
   3372000  -717.97741      46.561698      218.25991      0.5          
   3373000  -717.88051     -115.50666      220.19545      0.5          
   3374000  -717.87631      91.986837      220.04085      0.5          
   3375000  -717.77262      64.453488      219.55412      0.5          
   3376000  -717.81562     -277.07894      216.70809      0.5          
   3377000  -717.92497      217.72128      218.13468      0.5          
   3378000  -717.78915      117.57124      218.48124      0.5          
   3379000  -717.69523      181.27118      220.69562      0.5          
   3380000  -717.61238      6.315506       219.57069      0.5          
   3381000  -717.80038     -261.0221       220.79855      0.5          
   3382000  -718.04528      137.40248      218.70408      0.5          
   3383000  -718.0418      -79.252746      218.21466      0.5          
   3384000  -718.02388     -97.913966      217.98508      0.5          
   3385000  -718.31166      229.23153      218.28038      0.5          
   3386000  -718.36591      153.32312      221.38519      0.5          
   3387000  -718.332       -310.09572      220.28005      0.5          
   3388000  -718.20457     -167.00372      218.80133      0.5          
   3389000  -718.20089      220.43712      217.62612      0.5          
   3390000  -717.98074      186.02988      217.39433      0.5          
   3391000  -717.9503      -49.067696      216.6638       0.5          
   3392000  -718.24814      21.749622      217.95867      0.5          
   3393000  -718.08483      32.160478      217.69629      0.5          
   3394000  -718.21475     -74.769991      217.06275      0.5          
   3395000  -717.79244      50.389253      218.76435      0.5          
   3396000  -717.99973     -29.581955      217.55709      0.5          
   3397000  -717.82474     -184.77267      215.43322      0.5          
   3398000  -717.98863      92.030107      214.903        0.5          
   3399000  -718.19066     -253.00016      214.77968      0.5          
   3400000  -717.92447     -87.800045      215.93154      0.5          
   3401000  -717.89487      159.53644      216.20549      0.5          
   3402000  -718.24053     -32.757203      216.24556      0.5          
   3403000  -718.3626       16.669043      215.09232      0.5          
   3404000  -718.02842      70.095736      216.22892      0.5          
   3405000  -718.06385     -40.135065      215.01113      0.5          
   3406000  -718.01373     -39.952755      217.14665      0.5          
   3407000  -718.36822      316.36865      217.04589      0.5          
   3408000  -718.29049      186.2579       216.65065      0.5          
   3409000  -718.20543     -39.191497      216.57909      0.5          
   3410000  -718.12536     -204.52422      216.20341      0.5          
   3411000  -718.52663     -116.86982      219.38417      0.5          
   3412000  -718.52781      214.55624      218.27936      0.5          
   3413000  -718.38195      150.11475      216.19301      0.5          
   3414000  -718.32128     -229.17314      219.28607      0.5          
   3415000  -718.5111      -81.229623      218.44242      0.5          
   3416000  -718.648        282.17814      218.47698      0.5          
   3417000  -718.39444      292.38949      217.34722      0.5          
   3418000  -718.32196     -190.74633      217.04451      0.5          
   3419000  -718.4609      -136.86433      219.5382       0.5          
   3420000  -718.36353      142.0865       218.27686      0.5          
   3421000  -718.57229      73.164241      217.32602      0.5          
   3422000  -718.53378      175.04359      217.8988       0.5          
   3423000  -718.5143       54.021387      216.8843       0.5          
   3424000  -718.58472     -83.380206      220.93543      0.5          
   3425000  -718.83938      11.905019      225.1677       0.5          
   3426000  -718.57407     -90.527696      218.49511      0.5          
   3427000  -718.44383      82.695464      220.63803      0.5          
   3428000  -718.50345     -201.79314      215.70336      0.5          
   3429000  -718.72774      184.97943      217.41796      0.5          
   3430000  -718.89995      39.324252      219.75148      0.5          
   3431000  -718.59824     -157.63498      216.87051      0.5          
   3432000  -718.77386      74.787299      216.96252      0.5          
   3433000  -718.71363      42.867711      217.2694       0.5          
   3434000  -718.96939     -76.252967      218.20759      0.5          
   3435000  -719.05312     -210.64084      217.43217      0.5          
   3436000  -718.98697     -77.921784      220.75322      0.5          
