LAMMPS data file via write_data, version 29 Aug 2024, timestep = 200000, units = real

7050 atoms
2 atom types
4700 bonds
1 bond types
2350 angles
1 angle types

0 40 xlo xhi
0 40 ylo yhi
0 240 zlo zhi

Masses

1 12.0107
2 15.9994

Pair Coeffs # lj/cut/coul/long/omp

1 0.0536545 2.8
2 0.156989 3.05

Bond Coeffs # harmonic/omp

1 1028.27 1.16

Angle Coeffs # harmonic/omp

1 55.96 180

Atoms # full

6900 2300 2 -0.35 12.012734853668778 16.707313815582864 11.352434840814245 3 -1 0
6898 2300 1 0.7 12.117790204167614 17.514234313161445 12.225241313992575 3 -1 0
6899 2300 2 -0.35 12.223204454333626 18.23248322485995 13.126286968069884 3 -1 0
1559 520 2 -0.35 17.277797630613897 12.466659134686642 22.083145250088247 -1 3 1
1558 520 1 0.7 16.863360665091214 11.862137361419148 22.985808444369173 -1 3 1
1560 520 2 -0.35 16.395885983142392 11.346530742262672 23.895063110456952 -1 3 1
6883 2295 1 0.7 12.360291820768426 2.8571120480879975 33.77395168916551 0 -5 1
6884 2295 2 -0.35 12.23781998179917 3.665539422315865 34.5734017136178 0 -5 1
6885 2295 2 -0.35 12.568109856207812 2.0295309328908564 33.02032679915323 0 -5 1
3492 1164 2 -0.35 8.298838473817694 3.6172763146545783 71.3984576441581 1 1 0
3490 1164 1 0.7 9.396937475430006 3.336821283012641 71.09961170444394 1 1 0
283 95 1 0.7 14.423318644503347 18.400139759584462 88.20006646153598 0 0 0
3517 1173 1 0.7 8.44117653119248 18.772909588790327 72.84094401813795 1 0 0
4007 1336 2 -0.35 0.25988779333236023 14.785408834812412 83.27655794636709 1 0 0
3510 1170 2 -0.35 13.672279723885115 16.443018187487823 72.72168941656298 1 0 0
811 271 1 0.7 15.90991539153145 10.143098797043749 82.221164740957 0 0 0
3512 1171 2 -0.35 4.700095881154707 8.136685088749477 74.68271091773325 1 0 0
5397 1799 2 -0.35 6.212863284422575 2.688829431209085 73.95712866177874 1 1 0
7028 2343 2 -0.35 1.6083096967886692 8.019474548743005 76.12697304877034 2 -2 1
5347 1783 1 0.7 9.17315522458402 6.907127057671332 75.08373234202134 1 0 0
77 26 2 -0.35 2.9290439605240017 7.008226501663096 78.59805863546667 0 0 0
78 26 2 -0.35 2.75142973796482 4.707217897259846 78.83527988655989 0 0 0
76 26 1 0.7 2.864252483133618 5.84983065756968 78.70296784291385 0 0 0
5348 1783 2 -0.35 8.448465949459187 6.315446124423899 74.40116159077465 1 0 0
5349 1783 2 -0.35 9.900502743095068 7.549629409693188 75.70506867381721 1 0 0
7027 2343 1 0.7 0.4406126050128282 8.137439072922438 76.30204683253815 2 -2 1
3639 1213 2 -0.35 4.113060593719197 1.5260892768977925 77.89082343583108 1 0 0
5395 1799 1 0.7 5.642424861818897 3.6867203496661305 73.74893735856347 1 1 0
3637 1213 1 0.7 4.8147164737153885 2.420928037474095 77.65196365205212 1 0 0
3573 1191 2 -0.35 1.6136227474151177 6.359444892440718 81.80853791562426 1 0 0
3638 1213 2 -0.35 5.548649758851164 3.299052707538579 77.38242313413 1 0 0
5270 1757 2 -0.35 16.30600342140759 13.778461196171161 83.9306493495661 1 0 0
5374 1792 1 0.7 8.331866434189568 4.695971722354385 78.92514623854792 1 1 0
5396 1799 2 -0.35 4.998230827212419 4.631300824554456 73.48564801473665 1 1 0
3491 1164 2 -0.35 10.456320621902327 3.0044141996937195 70.76400738690552 1 1 0
5376 1792 2 -0.35 8.336814283433448 4.296349504808082 80.00503936166434 1 1 0
4196 1399 2 -0.35 1.2326599681809731 2.3138943652500634 80.41351420342411 1 0 0
5497 1833 1 0.7 1.8881641181373388 0.29300986053807765 75.95164144601641 1 1 0
3513 1171 2 -0.35 4.781548009965909 6.469492009572171 76.35891571101234 1 0 0
1803 601 2 -0.35 18.709047015720387 9.374633757005878 81.79462145480892 0 0 0
3511 1171 1 0.7 4.757039420500103 7.331315399346908 75.54248041524163 1 0 0
3453 1151 2 -0.35 5.273418351938174 4.810628801896637 80.52578939841942 2 0 0
3558 1186 2 -0.35 5.663520059007717 8.026520094074808 80.39275731339401 1 0 0
3556 1186 1 0.7 5.961937558936462 8.620212263764564 79.44231848844224 1 0 0
3557 1186 2 -0.35 6.101222763239837 9.324108503065759 78.51113329339753 1 0 0
4195 1399 1 0.7 2.1776171761126397 2.4401121021843077 81.06495354875291 1 0 0
5375 1792 2 -0.35 8.273822147794375 5.177157774057804 77.83098872212247 1 1 0
5487 1829 2 -0.35 9.379695357674196 1.9146248571930748 77.76110671902863 1 1 0
5485 1829 1 0.7 9.260975030117924 0.7751714259668828 77.55621172025046 1 1 0
3554 1185 2 -0.35 9.531625294204904 7.758230703763082 79.26523455417139 1 0 0
3469 1157 1 0.7 1.3738870398007754 9.199577788459646 80.16816979354219 1 0 0
3471 1157 2 -0.35 0.8423900360146063 8.98560090613161 79.16454011480884 1 0 0
3534 1178 2 -0.35 6.6303040002521385 1.781025497297895 80.4036417836826 1 0 0
48 16 2 -0.35 7.8475708932038115 5.620762030527332 89.50352682408096 0 0 0
3648 1216 2 -0.35 1.795648053080886 7.5537773877829375 90.23158257216252 1 0 0
5281 1761 1 0.7 5.23466756911162 19.015201713870976 81.04140470738861 1 0 0
5499 1833 2 -0.35 1.2329282357664493 0.5715633426493321 76.8664265358637 1 1 0
213 71 2 -0.35 10.85159117637395 4.113082025005308 75.60536901312234 1 0 0
212 71 2 -0.35 11.01356783703096 5.348572356699522 77.56539708143907 1 0 0
211 71 1 0.7 10.956943308534576 4.7473131917991465 76.56896258612586 1 0 0
1859 620 2 -0.35 14.24217098631166 4.151338509735264 77.38346003172319 0 1 0
5849 1950 2 -0.35 11.701251044892336 2.7750352361698734 80.09353437463085 1 1 0
1858 620 1 0.7 15.226531395180835 3.532950494549381 77.43175796285725 0 1 0
1860 620 2 -0.35 16.245612736113454 2.9658130891582153 77.3892152612151 0 1 0
6963 2321 2 -0.35 14.189970432151613 6.73156362141391 79.29545535482234 -5 8 0
5417 1806 2 -0.35 13.712873816557334 0.8703130960945333 77.42807949200572 1 1 0
6961 2321 1 0.7 14.453868474598668 7.6560905708232845 78.68261745947152 -5 8 0
6962 2321 2 -0.35 14.665731719973055 8.623956217877588 78.08980261043621 -5 8 0
3555 1185 2 -0.35 11.420646491338609 8.626925250658555 78.20829990129846 1 0 0
3553 1185 1 0.7 10.461944265894193 8.19131665008565 78.7661846926765 1 0 0
148 50 1 0.7 18.57914892971689 9.831813025722244 78.1832424313134 0 0 0
150 50 2 -0.35 18.044889777452273 8.955582047991129 78.71400019190517 0 0 0
1801 601 1 0.7 19.148456718641615 8.678566284100748 82.61401116840851 0 0 0
5848 1950 1 0.7 12.143232467480525 3.820792588350297 80.42516709183806 1 1 0
1983 661 2 -0.35 12.0275236912526 0.705749378545969 73.9256817582471 0 1 0
66 22 2 -0.35 17.135731886082066 5.935023775122121 78.96675255472708 0 0 0
2153 718 2 -0.35 16.13164154465626 2.1655253352750443 80.82411620788866 0 1 0
5416 1806 1 0.7 12.882885927382635 0.6267906224966703 78.19592185473843 1 1 0
3468 1156 2 -0.35 17.68095273308736 16.953046924015403 85.99155601353225 1 0 0
1981 661 1 0.7 12.539701998985926 0.7396051924856388 72.88030672447644 0 1 0
3700 1234 1 0.7 0.7231117378681666 16.45050952346492 76.16235667291764 1 1 0
5253 1751 2 -0.35 2.393964151134858 17.3385909863022 74.21892874681717 1 0 0
7016 2339 2 -0.35 2.467732884186251 11.214105995194686 75.86355439444239 -2 1 1
5251 1751 1 0.7 3.03237405537232 18.274460849287507 74.05266645635166 1 0 0
4006 1336 1 0.7 0.06691637597888539 14.079266101207972 82.39976861796764 1 0 0
6920 2307 2 -0.35 4.744218465390751 14.038180919678576 80.87034496054292 1 0 0
6919 2307 1 0.7 4.6135750304153404 12.930186782339305 80.55430340748033 1 0 0
7015 2339 1 0.7 2.248633624402709 10.751278964367451 74.84289540146992 -2 1 1
7017 2339 2 -0.35 2.1676014277215594 10.324472365148186 73.77105403147348 -2 1 1
6921 2307 2 -0.35 4.644625646656636 11.847037334420982 80.06132613795965 1 0 0
1930 644 1 0.7 8.301308043048568 17.28085294058283 76.67371627163473 0 1 0
1931 644 2 -0.35 8.202779703446163 18.354015845708567 77.13741657471238 0 1 0
1932 644 2 -0.35 8.244219793767458 16.23770081970733 76.11900275024573 0 1 0
3612 1204 2 -0.35 5.141064091185469 16.946815541151597 78.46197799395813 1 0 0
3611 1204 2 -0.35 4.1335804840109915 16.126615714644505 76.48512711917284 1 0 0
3610 1204 1 0.7 4.599920958940747 16.54620779669812 77.48819972401593 1 0 0
3640 1214 1 0.7 1.3073002298518175 13.832138169818595 78.92453102898591 1 0 0
4230 1410 2 -0.35 8.245179419784018 15.850150945903101 79.383068663943 1 0 0
3641 1214 2 -0.35 2.241201632503041 13.202266995616057 79.2289801279554 1 0 0
4228 1410 1 0.7 7.843753614077031 16.126204758043915 80.45231057080028 1 0 0
3527 1176 2 -0.35 9.074952773413942 10.774446283581884 78.38819142842132 1 0 0
3526 1176 1 0.7 8.341952155609455 11.301805246855253 79.14221786693291 1 0 0
5269 1757 1 0.7 15.192715915082262 13.754652838566791 83.5981729513652 1 0 0
3642 1214 2 -0.35 0.3423016575410231 14.388167930480517 78.58972784603486 1 0 0
5282 1761 2 -0.35 4.849381797496537 18.013965278496045 81.49645204108499 1 0 0
3528 1176 2 -0.35 7.647378449079566 11.751585010714011 79.96795581797696 1 0 0
3470 1157 2 -0.35 1.992508509112272 9.402109652950356 81.11663058914569 1 0 0
3530 1177 2 -0.35 1.6839372035270215 19.118485307707935 80.06458199323347 1 0 0
3702 1234 2 -0.35 0.03413337524185252 15.830336092839588 75.47155336991318 1 1 0
3701 1234 2 -0.35 1.416248343515944 17.01034027460928 76.91533093109476 1 1 0
1839 613 2 -0.35 17.715452711127995 13.568236531853298 74.06545135331483 0 0 0
1837 613 1 0.7 18.65413303784374 13.722095993198433 73.39439948698032 0 0 0
3461 1154 2 -0.35 15.720864809472166 18.7741585785336 80.12187132845736 1 -1 0
149 50 2 -0.35 19.088519130608 10.76930096422381 77.68118369515861 0 0 0
1905 635 2 -0.35 13.876087002163144 10.649799740721566 75.79234603509427 0 0 0
5263 1755 1 0.7 16.593358287443742 18.71763818538772 76.62888854539226 1 0 0
5264 1755 2 -0.35 15.4921734357894 18.500073270412006 76.31663578839738 1 0 0
51 17 2 -0.35 19.33298731237338 12.292583302156723 80.31153707224803 0 0 0
3508 1170 1 0.7 14.800771449403731 16.461785059284257 72.85139550594403 1 0 0
3509 1170 2 -0.35 15.973698664097483 16.43931562345667 72.96562439466942 1 0 0
359 120 2 -0.35 18.695154986350353 18.39924589193334 89.22004339277926 0 0 0
1903 635 1 0.7 13.692778852283688 11.038917872265282 76.86225950133469 0 0 0
1904 635 2 -0.35 13.497255254186982 11.437328129330751 77.95354907525808 0 0 0
172 58 1 0.7 14.88634238254006 14.443717914482288 76.1060530555982 0 0 0
226 76 1 0.7 12.85266143742251 14.449891318831227 79.66123709344791 0 0 0
227 76 2 -0.35 13.374690752024296 15.15841757939275 78.87772784276262 0 0 0
174 58 2 -0.35 14.266122288245938 15.341702461476135 75.80749455261905 0 0 0
136 46 1 0.7 18.600599755641 15.993168825264572 78.98561711889721 0 0 0
138 46 2 -0.35 17.849221829476278 16.16599633213014 78.15263278971628 0 0 0
3481 1161 1 0.7 15.911518736395207 12.703112267092056 80.20084913325547 1 0 0
3483 1161 2 -0.35 15.683094471785745 13.758961891575993 80.65502827430481 1 0 0
173 58 2 -0.35 15.444017202612992 13.492424183514196 76.49967300303574 0 0 0
67 23 1 0.7 17.732892041259667 12.48734340432989 89.73576964732734 0 0 0
3482 1161 2 -0.35 16.212730184537318 11.681383578700471 79.72894506432095 1 0 0
228 76 2 -0.35 12.317238427561472 13.777682931601024 80.43708300073952 0 0 0
1838 613 2 -0.35 19.595969327203406 13.938005708283638 72.73197892856909 0 0 0
69 23 2 -0.35 18.638445130789844 11.748273623237894 89.62558834113035 0 0 0
235 79 1 0.7 1.693185475688228 1.9409580017219608 85.11859987415421 0 0 0
236 79 2 -0.35 1.2277792202597007 1.6226986695769448 84.08597877300308 0 0 0
5505 1835 2 -0.35 10.026398032930107 6.202095276702191 82.56809714640849 1 0 0
3473 1158 2 -0.35 8.530337643219832 0.0035787179074650345 85.53413022215817 1 0 0
237 79 2 -0.35 2.1349359633533633 2.3924275848040026 86.08093644828145 0 0 0
2542 848 1 0.7 17.930696176336962 0.28044845277539854 76.86358910293764 -1 1 0
5503 1835 1 0.7 9.74060091618866 7.298548174549659 82.37126825512536 1 0 0
5504 1835 2 -0.35 9.403205115475105 8.39270782014301 82.17115327249233 1 0 0
4197 1399 2 -0.35 3.1546358424163623 2.7172545286154244 81.62584478232182 1 0 0
6007 2003 1 0.7 2.444767921338433 0.5320435708797427 88.74466513401815 1 1 0
3571 1191 1 0.7 1.689617574729043 5.855856491432209 82.85310221018678 1 0 0
3572 1191 2 -0.35 1.953854511165144 5.316869616272206 83.84692057053906 1 0 0
3792 1264 2 -0.35 0.44260337152372603 7.702945899624232 84.1990231677491 1 0 0
285 95 2 -0.35 13.712936263515454 18.266971491139845 89.12018136699453 0 0 0
3532 1178 1 0.7 6.495437401716 1.57146140919606 81.52929349642788 1 0 0
2160 720 2 -0.35 5.758705293227874 2.8415809124285216 86.34664678331134 0 1 0
3449 1150 2 -0.35 3.02636450970303 4.788172855622 89.66392347638481 1 0 0
158 53 2 -0.35 8.425766119862345 2.156812004673328 88.20984526757283 0 0 0
3451 1151 1 0.7 5.033649991403786 5.127497644826883 81.6396375218049 2 0 0
3452 1151 2 -0.35 4.7529773776645445 5.488983016299439 82.69802345378146 2 0 0
7002 2334 2 -0.35 8.569675025581194 3.357917390902556 83.44129956712911 -4 -1 1
7000 2334 1 0.7 8.460820650564697 4.318789483219243 84.0598921182893 -4 -1 1
7001 2334 2 -0.35 8.297533288868621 5.362666038364434 84.58075119025662 -4 -1 1
46 16 1 0.7 6.838121389085028 5.163911257460537 89.17491127098545 0 0 0
47 16 2 -0.35 5.806724627997932 4.7007865290646365 88.9223408984458 0 0 0
3514 1172 1 0.7 4.083182253695647 7.262939692826356 85.69626608697422 1 0 0
6048 2016 2 -0.35 3.932237421689404 9.01440200381806 87.99292035332785 1 1 0
157 53 1 0.7 9.499579870814852 1.8001554480004214 88.47648708650337 0 0 0
6046 2016 1 0.7 4.495576901350182 8.532693258590731 88.86843688923446 1 1 0
2543 848 2 -0.35 17.7543688920484 0.16283580817565352 78.00672782756473 -1 1 0
3516 1172 2 -0.35 3.604105409029593 7.988048104140608 84.92058636051155 1 0 0
3515 1172 2 -0.35 4.6277831976731 6.50600833373773 86.37708391143184 1 0 0
3448 1150 1 0.7 3.372122828991051 3.9558060052028066 90.41116535668353 1 0 0
177 59 2 -0.35 6.518388730340359 9.188445105390137 84.30063500029429 0 0 0
6047 2016 2 -0.35 5.0794082290816185 8.090667341734168 89.7817856918677 1 1 0
2159 720 2 -0.35 4.742448056917031 1.9397212908671013 88.16202401817124 0 1 0
2158 720 1 0.7 5.26660708678339 2.4193917042787576 87.26359189996495 0 1 0
3790 1264 1 0.7 0.803461613608739 7.380984419038895 85.27841578747983 1 0 0
3791 1264 2 -0.35 1.2102051253855834 7.036948436302146 86.3098688754993 1 0 0
6008 2003 2 -0.35 2.008948633162153 1.5815912747598273 88.90069901388122 1 1 0
159 53 2 -0.35 10.602190043938178 1.5029487895356066 88.80966665094803 0 0 0
3533 1178 2 -0.35 6.412844170257122 1.4448026171208532 82.67259621985602 1 0 0
2154 718 2 -0.35 18.449558637734004 2.4489049482686904 80.92924182001313 0 1 0
2305 769 1 0.7 16.001199745549354 6.228948420596997 90.47397589998133 0 1 0
3478 1160 1 0.7 11.340894836358704 16.220921527095324 82.97909229950561 1 0 0
1985 662 2 -0.35 10.336624236868461 8.271097267720236 87.00529334770273 0 1 0
1984 662 1 0.7 10.756099346551826 8.083003623103298 85.95161305938167 0 1 0
1986 662 2 -0.35 11.19888930345013 7.944678520238403 84.90262552574652 0 1 0
3816 1272 2 -0.35 16.14301242977815 3.4258495051535016 88.791507306201 1 0 0
64 22 1 0.7 17.582746080915022 6.311025832467296 79.99363740932237 0 0 0
65 22 2 -0.35 18.07026737464205 6.5646884521066955 81.01961455305893 0 0 0
2152 718 1 0.7 17.291535705880776 2.320131327733994 80.93272672983316 0 1 0
2306 769 2 -0.35 15.703849523532739 6.41991784635159 89.34852979777978 0 1 0
146 49 2 -0.35 13.185870026435584 1.220213895474302 81.86416113964108 0 0 0
5429 1810 2 -0.35 10.305681620313557 0.3040096135141496 82.41402793716051 0 0 0
1870 624 1 0.7 13.74515928305154 0.21829122034859275 89.13579943173124 0 1 0
5448 1816 2 -0.35 4.192019876309845 0.0947495714481664 85.49050881828681 1 1 0
1872 624 2 -0.35 13.714128511127788 1.002460909287632 89.99673843138687 0 1 0
145 49 1 0.7 13.212726520785345 0.09613198030961544 82.12515713310188 0 0 0
3814 1272 1 0.7 16.627879018184288 2.639920216906915 89.44551478374743 1 0 0
5850 1950 2 -0.35 12.416242828846059 4.870093471083168 80.85502322822364 1 1 0
137 46 2 -0.35 19.36945902031246 15.86087303398072 79.8663324118104 0 0 0
4 2 1 0.7 19.00702026031195 2.730116457076666 84.32495615902283 0 0 0
5 2 2 -0.35 17.946319951172377 2.548240462436224 83.93511652413385 0 0 0
396 132 2 -0.35 12.001315981001234 1.6645463463578407 84.47979124013786 0 0 0
3654 1218 2 -0.35 15.315890234651459 4.7638923282372385 82.627490100796 0 0 0
3652 1218 1 0.7 14.368958831038334 5.1334248721198525 83.14716202591899 0 0 0
3653 1218 2 -0.35 13.421847407604766 5.348611703000289 83.7572769206972 0 0 0
20 7 2 -0.35 12.468520959189826 8.531044358409437 81.9779135575152 0 0 0
5312 1771 2 -0.35 12.773557952263586 5.775788214854057 87.52606089613735 1 1 0
3728 1243 2 -0.35 16.884709735760012 4.924386649005444 86.19779086357788 1 0 0
3729 1243 2 -0.35 18.374919225657937 5.9071716331753645 87.6788397658122 1 0 0
3727 1243 1 0.7 17.642449372527945 5.407660037797855 86.92962503696432 1 0 0
5311 1771 1 0.7 12.934574581874935 4.646907661224584 87.69340613944412 1 1 0
192 64 2 -0.35 15.487483704988655 8.461377558413952 86.21538066369091 0 0 0
394 132 1 0.7 11.548155686396477 2.6042820557992523 84.96215371357981 0 0 0
395 132 2 -0.35 11.178356243619332 3.559061878672012 85.5342281162139 0 0 0
320 107 2 -0.35 15.781954158452383 1.577521087151471 86.63083788105082 0 0 0
319 107 1 0.7 15.124121662352293 2.2422425349272914 85.94271866530953 0 0 0
321 107 2 -0.35 14.488112222824283 2.9613654100142073 85.26736877840565 0 0 0
190 64 1 0.7 14.61842519467731 9.235951494116273 86.25079694630027 0 0 0
191 64 2 -0.35 13.789941218266272 10.060121583401521 86.21330935298712 0 0 0
3815 1272 2 -0.35 17.138894329391988 1.9006995450738973 90.15583418689747 1 0 0
2421 807 2 -0.35 14.979109480110742 13.194091572676585 86.45256809082153 0 1 0
19 7 1 0.7 12.638165594707475 9.524508682611451 82.57619159411905 0 0 0
5313 1771 2 -0.35 13.186142151937723 3.5306390765842615 87.7763449997706 1 1 0
5342 1781 2 -0.35 19.581146261208254 2.6536350545476006 87.93609896105683 0 1 0
5510 1837 2 -0.35 18.191152941262704 8.699476458459054 89.21314694962388 1 1 0
5509 1837 1 0.7 18.27041124990156 9.105319382405398 88.1230303485821 1 1 0
3924 1308 2 -0.35 10.47379194373827 18.194764637770685 88.54000225170195 1 0 0
6928 2310 1 0.7 2.6318991682043054 16.154555138905916 82.38110744213787 -6 1 0
6930 2310 2 -0.35 2.1235127457510874 16.02943966385471 81.33681736607828 -6 1 0
4229 1410 2 -0.35 7.358496335938608 16.34026794622724 81.51759909667885 1 0 0
3497 1166 2 -0.35 7.271761310240619 9.526227100376355 87.16279007877984 1 0 0
4131 1377 2 -0.35 3.5353871215547574 10.99944913036502 84.50417555299474 1 0 0
4129 1377 1 0.7 2.8432211907935296 11.579976521601896 83.78774103285507 1 0 0
4130 1377 2 -0.35 2.1409605136359247 12.180866265805 83.10242890322299 1 0 0
6929 2310 2 -0.35 3.1926281313762472 16.150238677054446 83.41483060101487 -6 1 0
3496 1166 1 0.7 8.020042172219869 10.354598385354794 87.53777555650058 1 0 0
175 59 1 0.7 6.223726594263397 10.016893711450987 83.54091243297846 0 0 0
3549 1183 2 -0.35 4.250639640421902 18.96032792335469 85.36761485838812 1 0 0
176 59 2 -0.35 5.913799306843771 10.853265734942381 82.77887247985515 0 0 0
2419 807 1 0.7 15.617097474518056 12.34608507397808 86.9442878256528 0 1 0
5320 1774 1 0.7 14.738579025769972 19.075799611599948 84.28372749265348 1 0 0
2493 831 2 -0.35 3.0303808476882277 13.821610184661857 85.60976254272653 0 1 0
3498 1166 2 -0.35 8.800170743674618 11.10591472763932 87.94961575198973 1 0 0
11 4 2 -0.35 0.43150186610686003 12.445398354551829 87.09281938574429 1 0 0
12 4 2 -0.35 1.81349337719951 12.268117932884701 88.95454495143396 1 0 0
2491 831 1 0.7 2.5051802881303824 14.827691244570557 85.79961812373175 0 1 0
10 4 1 0.7 1.1471889908901716 12.357443763390531 88.0075971685827 1 0 0
4172 1391 2 -0.35 5.557742328956529 16.729089719049245 86.94717455800041 1 0 0
3485 1162 2 -0.35 7.309084299825885 12.552536472454259 85.12153708925433 1 0 0
3985 1329 1 0.7 8.907838772895564 17.064101280666307 86.05121455988652 1 0 0
2492 831 2 -0.35 1.9360454153432225 15.802107385360493 86.03564256427181 0 1 0
3484 1162 1 0.7 6.53692415678206 13.251591008477062 84.63285278482144 1 0 0
3486 1162 2 -0.35 5.717088328182866 13.977072592295423 84.15679342334505 1 0 0
3582 1194 2 -0.35 4.88352689233661 13.229203935042925 90.43593888712249 1 0 0
3580 1194 1 0.7 4.4846026260771925 13.76989881170843 89.46669421923033 1 0 0
3581 1194 2 -0.35 4.091333963993609 14.181176249600952 88.4328429363985 1 0 0
4171 1391 1 0.7 4.6864106555379825 17.169203922006023 87.55434061448287 1 0 0
4173 1391 2 -0.35 3.717518640058857 17.52829997237267 88.11046923376372 1 0 0
3986 1329 2 -0.35 9.3451164313508 15.978594907670868 86.21036486825776 1 0 0
3987 1329 2 -0.35 8.548859298808921 18.1559419450754 86.06328721839607 1 0 0
140 47 2 -0.35 6.419930695288079 0.07164698155678387 76.00679540757365 0 0 0
3922 1308 1 0.7 10.399810976552054 17.981041082616404 89.67113523242448 1 0 0
102 34 2 -0.35 14.212366120114652 9.388736352573236 89.89552986375274 0 0 0
3467 1156 2 -0.35 17.185961246482325 14.911011347034888 86.97365470978518 1 0 0
68 23 2 -0.35 16.83839166352779 13.16888334412708 89.97449918220214 0 0 0
284 95 2 -0.35 15.201713737714153 18.538444686561295 87.32165820760171 0 0 0
773 258 2 -0.35 18.307914886355526 16.208573928577707 82.93752945601669 0 0 0
5265 1755 2 -0.35 17.669195976140642 19.087379859848976 76.86319038113328 1 0 0
301 101 1 0.7 12.557587680324232 15.613307557901638 86.77606898366493 0 0 0
3479 1160 2 -0.35 10.28032778292909 15.872953013665212 83.29711547662204 1 0 0
21 7 2 -0.35 12.789352202656579 10.471763648579227 83.26179367797477 0 0 0
303 101 2 -0.35 12.665919882902301 15.071271943622824 87.78577477810171 0 0 0
5271 1757 2 -0.35 14.126703462783347 13.615178606028449 83.21117692463092 1 0 0
3921 1307 2 -0.35 10.74992657119921 10.98555184545605 85.42701369514829 1 0 0
5511 1837 2 -0.35 18.38203736823261 9.520725452969312 87.01571843895216 1 1 0
3466 1156 1 0.7 17.42600737834912 15.966069543668304 86.51747339368924 1 0 0
2420 807 2 -0.35 16.150264979621284 11.417797274766542 87.39539753223988 0 1 0
812 271 2 -0.35 15.587635011582366 9.153850608279322 81.71243578894611 0 0 0
1982 661 2 -0.35 13.055371712509185 0.8020260008932635 71.84423341620628 0 1 0
3480 1160 2 -0.35 12.403964953030819 16.556015261137848 82.66287319416773 1 0 0
772 258 1 0.7 19.372999594080916 16.601804159165063 83.10078549158078 0 0 0
813 271 2 -0.35 16.193452405703308 11.125742066773586 82.71740639529325 0 0 0
4235 1412 2 -0.35 15.694954541439124 16.535207405700103 90.35774445091079 1 0 0
3919 1307 1 0.7 11.3430605778034 11.96769893613775 85.47064386655984 1 0 0
3920 1307 2 -0.35 11.721934200206697 13.045073734193636 85.47968068892517 1 0 0
302 101 2 -0.35 12.446113486095081 16.114212654485264 85.75992575857842 0 0 0
3518 1173 2 -0.35 8.751817790778983 18.03441241260822 73.67130677410408 1 0 0
860 287 2 -0.35 11.154833605658013 4.46313105767578 90.21750007740675 0 0 0
5409 1803 2 -0.35 0.1335387445121588 18.986430068583836 73.62419237136731 1 0 0
222 74 2 -0.35 19.009339165371443 18.725444614196775 80.49229262694946 0 0 0
2544 848 2 -0.35 18.09827232408606 0.5389391263453339 75.71790166149192 -1 1 0
5418 1806 2 -0.35 12.186411802155739 0.32014180584538426 79.06739140018892 1 1 0
5428 1810 1 0.7 9.862638455521072 0.08210287236112926 81.35949049149423 0 0 0
5321 1774 2 -0.35 13.603756534697059 19.010322969859942 84.56923199966383 1 0 0
3705 1235 2 -0.35 0.06497041892657762 5.106555957663282 79.2585383904027 1 0 0
1802 601 2 -0.35 19.61138576148022 8.047571673204832 83.43035840484059 0 0 0
5472 1824 2 -0.35 4.241478103702503 3.9967529411258322 94.6867660651086 1 1 0
2299 767 1 0.7 8.845473203038344 3.4825342042672585 94.53682654172007 0 1 0
5470 1824 1 0.7 4.687760799517598 4.642936779047659 93.88441989910683 1 1 0
2301 767 2 -0.35 7.9886414715553675 3.296860116401963 93.79860494011186 0 1 0
5471 1824 2 -0.35 5.145974944661446 5.310566165259107 93.02648863744143 1 1 0
4174 1392 1 0.7 4.561634549987859 8.187681284474252 93.88449565362956 1 0 0
4175 1392 2 -0.35 3.847074430477541 8.33351560939876 93.00113343115594 1 0 0
887 296 2 -0.35 1.410752764539685 5.514992906421705 95.35545424675334 0 0 0
886 296 1 0.7 0.3465786180888119 5.778685856030044 94.92026507630399 0 0 0
4091 1364 2 -0.35 12.593646908662015 13.628336117309463 91.42006265735768 1 0 0
3831 1277 2 -0.35 12.05645388977943 12.250263583090033 95.0947593823281 1 0 0
4312 1438 1 0.7 5.2131385495775975 5.254831285695553 97.55801425005653 1 0 0
4314 1438 2 -0.35 6.144457456894612 5.24517309462661 96.87558029224891 1 0 0
3646 1216 1 0.7 1.5513420467319627 6.868775418245896 91.13989042504828 1 0 0
5620 1874 1 0.7 6.74060202593882 2.2397244824782994 91.56148312113277 1 1 0
3809 1270 2 -0.35 9.419445142258397 7.578168828853969 97.53667630453992 1 0 0
4313 1438 2 -0.35 4.312192799454101 5.123642706889116 98.29010317387382 1 0 0
3683 1228 2 -0.35 8.856983264457297 8.6513175078488 90.7415488352149 1 0 0
2570 857 2 -0.35 2.722223040564495 8.419503134558052 97.6359105495916 1 1 0
4105 1369 1 0.7 0.09492506678208681 3.049988329301519 92.58626170629515 1 0 0
3808 1270 1 0.7 9.188469509738484 8.706021352107491 97.72894855983871 1 0 0
5877 1959 2 -0.35 6.7375195280179065 8.95126168536817 99.195586835344 1 0 0
5651 1884 2 -0.35 1.9081163781028811 2.756761524320814 99.06420600515807 1 0 0
5650 1884 1 0.7 2.63097947808891 2.0428240709502683 98.45414949592227 1 0 0
5652 1884 2 -0.35 3.240797034325925 1.3466144609166355 97.77676796647016 1 0 0
2163 721 2 -0.35 6.6149755647917905 1.0186550291392147 94.89446310055015 0 1 0
2569 857 1 0.7 3.2801597124554354 8.883526113229944 98.50510944089852 1 1 0
3647 1216 2 -0.35 1.3503315910762752 6.21219673554239 92.06668742087294 1 0 0
3810 1270 2 -0.35 9.006220059673803 9.843956647649556 97.8108201033271 1 0 0
5622 1874 2 -0.35 7.499598468034937 2.8567095294272904 90.91163523512937 1 1 0
2483 828 2 -0.35 8.646415625733619 6.51940504904438 94.35845340469324 0 1 0
2482 828 1 0.7 9.420757455591003 7.385582781485224 94.45508569755576 0 1 0
4234 1412 1 0.7 15.72777203945072 15.891369479962949 91.31264507052444 1 0 0
4176 1392 2 -0.35 5.287904671408983 7.901622512011315 94.74966319316444 1 0 0
4090 1364 1 0.7 11.555928757898622 14.108046266202303 91.21640763568296 1 0 0
2571 857 2 -0.35 3.6801171272637023 9.237896056718874 99.53992648668046 1 1 0
6036 2012 2 -0.35 8.895859169905226 1.2239197319440607 97.993993829404 0 1 0
5621 1874 2 -0.35 6.003683007038365 1.5301085620741866 92.11260271123403 1 1 0
542 181 2 -0.35 17.257758369836022 12.451877993164153 99.4270668635595 0 0 0
6034 2012 1 0.7 7.945839892502193 1.8616482914337251 98.26183977326924 0 1 0
6035 2012 2 -0.35 6.9827825760397655 2.4592409759896343 98.50251998540297 0 1 0
1830 610 2 -0.35 9.822631379965772 0.9801746777723779 92.96393120137598 0 1 0
2300 767 2 -0.35 9.727167792003936 3.66571644577029 95.26437631191521 0 1 0
668 223 2 -0.35 19.58561372190249 12.4901439618672 96.11822520297201 0 0 0
861 287 2 -0.35 10.479392317280796 5.0743087023940125 92.3304645349153 0 0 0
859 287 1 0.7 10.85480444163067 4.795700459171389 91.27519499895661 0 0 0
230 77 2 -0.35 16.575630008547343 14.038231442457501 95.83485169394513 0 0 0
3960 1320 2 -0.35 18.65340397311255 7.459899254681867 93.35477505074789 1 0 0
2484 828 2 -0.35 10.258927930690916 8.162903158401809 94.58577671493657 0 1 0
3958 1320 1 0.7 19.35364557864926 6.6463610378856375 92.90044331048449 1 0 0
1833 611 2 -0.35 11.750763719336106 0.8533810592401175 96.74084507935333 0 1 0
4328 1443 2 -0.35 0.49795681240984957 8.843528244788546 94.7223448681807 1 0 0
441 147 2 -0.35 14.580985759135531 7.680528706809198 99.38270885656753 0 0 0
4326 1442 2 -0.35 14.798862896375859 5.8810701531058305 94.37021653867596 1 0 0
4324 1442 1 0.7 13.972767619832121 6.086939140546022 93.54877984194225 1 0 0
4325 1442 2 -0.35 13.125744159519018 6.3826861069974665 92.81649372912112 1 0 0
762 254 2 -0.35 17.975970189750484 3.42544788382527 93.55907181686901 0 0 0
760 254 1 0.7 17.1091427848307 3.132159567061165 94.2752032836871 0 0 0
3564 1188 2 -0.35 0.6079745167982246 12.243599693456614 95.23866290595576 1 0 0
761 254 2 -0.35 16.155848633780458 2.88761031234904 94.91039201005223 0 0 0
575 192 2 -0.35 13.083658854213933 1.6844994249862477 92.70549836435403 0 0 0
576 192 2 -0.35 14.322595764995869 3.5528593773916772 92.20428317555087 0 0 0
574 192 1 0.7 13.664309613876798 2.648136794828445 92.4618738456613 0 0 0
755 252 2 -0.35 16.365680796022232 6.485374245492533 97.19887048799866 0 0 0
754 252 1 0.7 17.211229142477052 5.861992397761764 96.72765279515852 0 0 0
2307 769 2 -0.35 16.453594683803757 6.077166852868645 91.5461050563756 0 1 0
693 231 2 -0.35 15.946943419949699 3.4463885370760354 97.98904487355031 0 0 0
691 231 1 0.7 15.00788804323012 3.059890911822767 97.38958847527238 0 0 0
2321 774 2 -0.35 12.297014049772752 8.839745703327683 97.60930053946079 0 1 0
692 231 2 -0.35 14.046950464817078 2.5650435451635127 96.94588182940632 0 0 0
2221 741 1 0.7 10.23122894230534 4.735777835306724 97.84190125071582 0 1 0
2222 741 2 -0.35 11.274272648834172 5.086888751968126 97.46906486633142 0 1 0
2097 699 2 -0.35 11.779310775179503 2.277061479110251 99.62063775181203 0 1 0
2223 741 2 -0.35 9.243967298618255 4.330608608417461 98.28854638072613 0 1 0
2320 774 1 0.7 12.81605830140913 8.980328277634595 96.58259675016572 0 1 0
415 139 1 0.7 18.32142363153662 9.611976687578856 95.84031879009149 0 0 0
417 139 2 -0.35 19.271533072556192 9.046535599067905 96.07861234227326 0 0 0
416 139 2 -0.35 17.394346750850197 10.210703010725728 95.59370307415433 0 0 0
3682 1228 1 0.7 9.909885325384987 8.11838507187451 90.71146803274243 1 0 0
3963 1321 2 -0.35 16.642067034302716 10.107063774330383 91.64696974848789 0 0 0
3962 1321 2 -0.35 18.550293771494584 10.66428591051877 92.80370718124384 0 0 0
756 252 2 -0.35 18.12715724760675 5.317451668602233 96.21804696390728 0 0 0
2161 721 1 0.7 6.03409340753811 0.025263525373817715 94.75464075927768 0 1 0
5722 1908 1 0.7 7.339248184015455 15.678888109802713 91.9042874947829 1 0 0
295 99 1 0.7 6.888166339037882 11.214992314611896 91.85657576188598 0 0 0
297 99 2 -0.35 7.975375683304594 11.595113297405845 91.93019543931669 0 0 0