LAMMPS (29 Aug 2024 - Update 1)
  using 1 OpenMP thread(s) per MPI task
using multi-threaded neighbor list subroutines
Created orthogonal box = (0 0 0) to (40 40 240)
  2 by 2 by 8 MPI processor grid
Read molecule template co2mol:
# CO2 molecule file. TraPPE-Flex model.
  1 molecules
  0 fragments
  3 atoms with max type 2
  2 bonds with max type 1
  1 angles with max type 1
  0 dihedrals with max type 0
  0 impropers with max type 0
Molecule file loaded successfully
Created 6894 atoms
  using lattice units in orthogonal box = (0 0 0) to (40 40 240)
  create_atoms CPU = 0.203 seconds
Created 78 atoms
  using lattice units in orthogonal box = (0 0 0) to (40 40 240)
  create_atoms CPU = 0.007 seconds
Created 78 atoms
  using lattice units in orthogonal box = (0 0 0) to (40 40 240)
  create_atoms CPU = 0.008 seconds
Setting atom values ...
  2350 settings made for charge
Setting atom values ...
  4700 settings made for charge
lz=240
2350 atoms in group car
4700 atoms in group oxy
Balancing ...
PPPM initialization ...
  using 12-bit tables for long-range coulomb (src/kspace.cpp:342)
  G vector (1/distance) = 0.20169663
  grid = 24 24 80
  stencil order = 5
  estimated absolute RMS force accuracy = 0.00286774
  estimated relative force accuracy = 8.6361139e-06
  using single precision FFTW3
  3d grid and FFT values/proc = 5776 1728
Generated 1 of 1 mixed pair_coeff terms from arithmetic mixing rule
Last active /omp style is kspace_style pppm/omp
Neighbor list info ...
  update: every = 1 steps, delay = 0 steps, check = yes
  max neighbors/atom: 2000, page size: 100000
  master list distance cutoff = 17
  ghost atom cutoff = 17
  binsize = 8.5, bins = 5 5 29
  1 neighbor lists, perpetual/occasional/extra = 1 0 0
  (1) pair lj/cut/coul/long/omp, perpetual
      attributes: half, newton on, omp
      pair build: half/bin/newton/omp
      stencil: half/bin/3d
      bin: standard
 rebalancing time: 0.041 seconds
  iteration count = 14
  initial/final maximal load/proc = 594 261
  initial/final imbalance factor  = 2.6961702 1.1846809
  x cuts: 0 0.46875 1
  y cuts: 0 0.46875 1
  z cuts: 0 0.35546875 0.40234375 0.45117188 0.49804688 0.54882812 0.59765625 0.64453125 1
PPPM initialization ...
  using 12-bit tables for long-range coulomb (src/kspace.cpp:342)
  G vector (1/distance) = 0.20169663
  grid = 24 24 80
  stencil order = 5
  estimated absolute RMS force accuracy = 0.00286774
  estimated relative force accuracy = 8.6361139e-06
  using single precision FFTW3
  3d grid and FFT values/proc = 14000 4732
Generated 1 of 1 mixed pair_coeff terms from arithmetic mixing rule
Last active /omp style is kspace_style pppm/omp
Setting up cg style minimization ...
  Unit style    : real
  Current step  : 0
Per MPI rank memory allocation (min/avg/max) = 8.632 | 9.032 | 9.488 Mbytes
   Step          Temp          E_pair         E_mol          TotEng         Press     
         0   0              49336.872      7.9026918e-12  49336.872      43177.231    
      2765   0             -11741.18       21.809358     -11719.37      -379.23674    
Loop time of 22.0675 on 32 procs for 2765 steps with 7050 atoms

99.4% CPU use with 32 MPI tasks x 1 OpenMP threads

Minimization stats:
  Stopping criterion = energy tolerance
  Energy initial, next-to-last, final = 
      49336.8715483816  -11719.3620917968   -11719.370175557
  Force two-norm initial, final = 12256.268 9.4163867
  Force max component initial, final = 805.65186 1.5262627
  Final line search alpha, max atom move = 0.066571042 0.1016049
  Iterations, force evaluations = 2765 5475

MPI task timing breakdown:
Section |  min time  |  avg time  |  max time  |%varavg| %total
---------------------------------------------------------------
Pair    | 2.2981     | 12.833     | 17.662     | 125.4 | 58.15
Bond    | 0.034859   | 0.04751    | 0.057769   |   3.1 |  0.22
Kspace  | 3.2764     | 8.119      | 18.697     | 158.2 | 36.79
Neigh   | 0.12449    | 0.1252     | 0.1264     |   0.1 |  0.57
Comm    | 0.62153    | 0.76847    | 0.83206    |   6.7 |  3.48
Output  | 0          | 0          | 0          |   0.0 |  0.00
Modify  | 0.016703   | 0.02643    | 0.036398   |   3.2 |  0.12
Other   |            | 0.1481     |            |       |  0.67

Nlocal:        220.312 ave         315 max          66 min
Histogram: 3 5 0 0 0 0 3 9 8 4
Nghost:        5631.06 ave        7725 max        3354 min
Histogram: 7 1 0 4 4 0 2 5 5 4
Neighs:         115787 ave      184508 max        3772 min
Histogram: 4 1 3 0 0 1 6 4 8 5

Total # of neighbors = 3705193
Ave neighs/atom = 525.55929
Ave special neighs/atom = 2
Neighbor list builds = 30
Dangerous builds = 0
System init for write_data ...
PPPM initialization ...
  using 12-bit tables for long-range coulomb (src/kspace.cpp:342)
  G vector (1/distance) = 0.20169663
  grid = 24 24 80
  stencil order = 5
  estimated absolute RMS force accuracy = 0.00286774
  estimated relative force accuracy = 8.6361139e-06
  using single precision FFTW3
  3d grid and FFT values/proc = 14000 4732
Generated 1 of 1 mixed pair_coeff terms from arithmetic mixing rule
Last active /omp style is kspace_style pppm/omp
#Step Pxx Pyy Pzz
#Step temp press ke pe etotal ecouple econserve
#Step px py pz COM_vx COM_vy COM_vz
PPPM initialization ...
  using 12-bit tables for long-range coulomb (src/kspace.cpp:342)
  G vector (1/distance) = 0.20169663
  grid = 24 24 80
  stencil order = 5
  estimated absolute RMS force accuracy = 0.00286774
  estimated relative force accuracy = 8.6361139e-06
  using single precision FFTW3
  3d grid and FFT values/proc = 14000 4732
Generated 1 of 1 mixed pair_coeff terms from arithmetic mixing rule
Last active /omp style is kspace_style pppm/omp
Setting up Verlet run ...
  Unit style    : real
  Current step  : 0
  Time step     : 0.5
Per MPI rank memory allocation (min/avg/max) = 8.141 | 8.27 | 8.622 Mbytes
   Step         TotEng         Press           Temp            Dt      
         0  -7096.7896      171.04629      220            0.5          
      1000  -3023.2119      989.55942      216.21675      0.5          
      2000  -2436.532       1313.7375      200.55798      0.5          
      3000  -1998.2564     -158.2032       212.91835      0.5          
      4000  -1904.5506     -39.722209      228.49968      0.5          
      5000  -1797.9178      83.129385      224.75724      0.5          
      6000  -1576.0899      2.4490644      218.73296      0.5          
      7000  -1521.7771      21.211583      213.32359      0.5          
      8000  -1402.8347     -295.27304      213.70227      0.5          
      9000  -1232.1443     -191.55173      222.54052      0.5          
     10000  -1044.8047     -187.76055      220.97578      0.5          
     11000  -832.20014     -459.52227      221.37029      0.5          
     12000  -828.05951     -253.55028      217.48184      0.5          
     13000  -661.6958      -68.359973      225.03251      0.5          
     14000  -587.80887     -252.96177      222.24637      0.5          
     15000  -577.12631     -83.137338      222.55557      0.5          
     16000  -594.74663     -241.00145      219.51481      0.5          
     17000  -590.14097     -318.3111       220.09452      0.5          
     18000  -707.40871      171.70467      221.18877      0.5          
     19000  -768.54042     -196.79472      218.1008       0.5          
     20000  -820.39307     -272.37365      221.5102       0.5          
     21000  -878.34015      165.74878      217.12855      0.5          
     22000  -873.71641      19.713425      221.50635      0.5          
     23000  -877.9622      -211.09821      219.43112      0.5          
     24000  -874.3396       138.20705      219.83173      0.5          
     25000  -840.63221     -38.887338      218.63742      0.5          
     26000  -801.63776     -7.7141731      219.7393       0.5          
     27000  -852.02129     -232.05294      219.71442      0.5          
     28000  -888.60033     -142.66235      219.55855      0.5          
     29000  -869.32586      224.47157      220.71792      0.5          
     30000  -904.60052     -91.586766      218.30352      0.5          
     31000  -730.13828     -203.20342      220.12381      0.5          
     32000  -884.52244     -76.451084      215.4779       0.5          
     33000  -851.26063     -15.818674      217.22546      0.5          
     34000  -673.93067     -100.67652      222.27759      0.5          
     35000  -758.40927     -112.31981      218.63161      0.5          
     36000  -786.33186      96.76871       216.68321      0.5          
     37000  -785.43396      70.893099      219.21         0.5          
     38000  -644.2856       115.11418      221.02217      0.5          
     39000  -615.93046     -295.82927      220.13402      0.5          
     40000  -641.23996     -211.11325      219.8269       0.5          
     41000  -623.23615      1.6802918      221.00665      0.5          
     42000  -619.02254     -159.80982      221.9144       0.5          
     43000  -526.62525      38.343633      223.6205       0.5          
     44000  -689.57736     -74.129814      220.06113      0.5          
     45000  -655.69381     -312.67632      221.17845      0.5          
     46000  -663.22677      44.262747      222.37023      0.5          
     47000  -679.79954      139.34902      221.17041      0.5          
     48000  -712.69484     -81.789876      221.82407      0.5          
     49000  -777.58099     -94.57482       218.46011      0.5          
     50000  -690.34241      330.64924      220.73071      0.5          
     51000  -824.88331      205.71937      217.74937      0.5          
     52000  -768.51771     -180.64097      219.49968      0.5          
     53000  -757.39368     -0.99124868     217.33318      0.5          
     54000  -637.74004      44.817519      218.80192      0.5          
     55000  -832.04563      81.084393      217.00974      0.5          
     56000  -769.75529     -16.238993      218.12918      0.5          
     57000  -679.50311     -373.29303      221.64646      0.5          
     58000  -715.10435     -138.70055      222.31238      0.5          
     59000  -819.05006      56.174088      218.54583      0.5          
     60000  -869.51616     -295.44725      218.23845      0.5          
     61000  -709.70697     -249.04298      220.51692      0.5          
     62000  -760.94414      113.16774      217.04166      0.5          
     63000  -821.61011      185.34044      218.62298      0.5          
     64000  -596.96755     -239.25062      224.84253      0.5          
     65000  -711.4949       93.183289      219.05715      0.5          
     66000  -826.94138     -95.477756      216.6563       0.5          
     67000  -875.84356     -68.764276      217.14499      0.5          
     68000  -828.42275     -262.52236      216.18972      0.5          
     69000  -744.20255     -105.54511      221.04977      0.5          
     70000  -722.0126      -12.977984      221.16691      0.5          
     71000  -761.28373     -25.052269      223.09326      0.5          
     72000  -913.41952     -36.133353      217.16488      0.5          
     73000  -869.68322      46.376936      218.25566      0.5          
     74000  -757.40313      199.69815      222.30174      0.5          
     75000  -944.55611     -126.98443      218.4681       0.5          
     76000  -923.02132     -63.736829      215.7262       0.5          
     77000  -995.70028      56.048008      215.57781      0.5          
     78000  -855.83785      164.42763      218.87721      0.5          
     79000  -875.51559     -328.71509      218.24209      0.5          
     80000  -884.82452     -4.829746       218.28834      0.5          
     81000  -848.12161     -3.2900742      218.80259      0.5          
     82000  -739.28147      58.391868      224.34297      0.5          
     83000  -813.09376     -0.3796857      217.93744      0.5          
     84000  -832.05774      99.558712      218.12032      0.5          
     85000  -779.01315      195.12459      220.55072      0.5          
     86000  -854.30884     -244.21176      216.86078      0.5          
     87000  -740.95484     -79.871695      222.38192      0.5          
     88000  -723.10388      67.656917      220.62157      0.5          
     89000  -802.71199     -4.6282325      221.61098      0.5          
     90000  -864.24804     -226.93613      217.07213      0.5          
     91000  -848.27955     -128.33788      219.59056      0.5          
     92000  -775.86704     -42.769583      221.46671      0.5          
     93000  -871.40317      191.00212      219.37533      0.5          
     94000  -880.75508     -122.56974      217.53514      0.5          
     95000  -892.347       -100.17932      218.47001      0.5          
     96000  -990.06065      178.46751      218.99517      0.5          
     97000  -881.44177      40.940976      219.57527      0.5          
     98000  -855.54402      82.063881      220.64186      0.5          
     99000  -972.74311     -2.1087612      220.90624      0.5          
    100000  -1041.3194      104.78407      216.71252      0.5          
    101000  -993.46137     -188.68883      222.61948      0.5          
    102000  -1096.4638     -32.095534      219.01157      0.5          
    103000  -1024.9846      73.20106       221.12898      0.5          
    104000  -1094.9706      90.935015      221.80503      0.5          
    105000  -1092.8627     -151.56499      219.44144      0.5          
    106000  -1180.9243      109.14118      219.00037      0.5          
    107000  -1193.9996      216.07985      218.58973      0.5          
    108000  -1150.1827      53.940074      222.90993      0.5          
    109000  -1187.7127      34.77099       218.80939      0.5          
    110000  -1181.2693      51.416404      219.27895      0.5          
    111000  -1154.2815     -112.4502       221.75785      0.5          
    112000  -1195.4181      192.41426      219.58988      0.5          
    113000  -1320.2316      95.351492      217.09256      0.5          
    114000  -1003.2997      91.243907      222.33138      0.5          
    115000  -1037.2307      9.5942691      218.81112      0.5          
    116000  -925.44958     -510.70932      220.40164      0.5          
    117000  -927.75317     -231.75105      224.00949      0.5          
    118000  -995.23851      247.15402      220.80321      0.5          
    119000  -931.53027      212.71387      217.49552      0.5          
    120000  -834.11948     -91.016414      225.11299      0.5          
    121000  -914.83791      26.637766      222.22441      0.5          
    122000  -924.88923     -92.822703      221.16317      0.5          
    123000  -784.12959      112.32261      224.94911      0.5          
    124000  -885.36371     -229.99807      218.00417      0.5          
    125000  -867.51291     -75.268086      216.93942      0.5          
    126000  -860.27559     -37.847532      219.51969      0.5          
    127000  -880.6599      -169.6596       220.03908      0.5          
    128000  -808.12872     -208.111        221.92252      0.5          
    129000  -841.73636     -117.7912       220.27921      0.5          
    130000  -628.64079     -79.84329       225.64657      0.5          
    131000  -563.36999      112.14448      227.46024      0.5          
    132000  -766.76335     -23.701777      219.16079      0.5          
    133000  -837.22612      104.71505      217.55191      0.5          
    134000  -878.57028     -154.62717      215.58475      0.5          
    135000  -808.84867     -221.95129      218.26304      0.5          
    136000  -692.0113      -20.852443      224.42727      0.5          
    137000  -727.404        54.346097      221.49902      0.5          
    138000  -746.00801     -73.993247      221.3723       0.5          
    139000  -750.53424      241.83006      225.1964       0.5          
    140000  -693.10707      158.62203      221.7341       0.5          
    141000  -877.95197     -88.314242      219.59633      0.5          
    142000  -934.45537     -229.61747      221.75841      0.5          
    143000  -1010.0342      34.079971      218.82092      0.5          
    144000  -867.95727      122.60188      222.17369      0.5          
    145000  -969.40717     -26.227014      217.47619      0.5          
    146000  -978.72748      226.35647      218.88204      0.5          
    147000  -937.88623      99.248896      220.4868       0.5          
    148000  -915.50039      47.936468      222.73187      0.5          
    149000  -844.46763      107.82276      224.85385      0.5          
    150000  -936.95312      27.183059      221.07096      0.5          
    151000  -885.47853     -14.7695        223.89954      0.5          
    152000  -991.26467      11.595041      220.84569      0.5          
    153000  -1073.0176      246.73909      215.2689       0.5          
    154000  -1066.5188     -147.33216      217.94497      0.5          
    155000  -1025.2448      46.043661      219.92501      0.5          
    156000  -1001.1503     -202.32025      218.55838      0.5          
    157000  -1018.7095      244.14428      217.31207      0.5          
    158000  -915.91607      65.460594      220.91573      0.5          
    159000  -1044.8948     -48.360939      217.49233      0.5          
    160000  -1073.5166      188.81222      216.84244      0.5          
    161000  -1006.3037      73.179199      220.03893      0.5          
    162000  -921.30479     -99.016554      223.13096      0.5          
    163000  -955.03713     -67.465606      221.95373      0.5          
    164000  -884.13559      57.328713      223.35362      0.5          
    165000  -906.80058      110.05716      220.35637      0.5          
    166000  -883.97788     -248.99524      220.03824      0.5          
    167000  -972.5804      -20.532112      220.22444      0.5          
    168000  -968.53539     -111.03019      218.85421      0.5          
    169000  -809.69711     -168.76359      222.11768      0.5          
    170000  -844.40341     -191.81762      218.91232      0.5          
    171000  -874.03338      52.807927      221.10914      0.5          
    172000  -836.49493     -67.747244      222.40256      0.5          
    173000  -831.99119     -140.99719      217.45082      0.5          
    174000  -829.76061      0.34897495     218.33675      0.5          
    175000  -774.21217     -232.91017      222.99369      0.5          
    176000  -782.94284     -312.41083      222.30259      0.5          
    177000  -861.02109     -60.917242      218.94443      0.5          
    178000  -872.80921     -0.1039739      222.12894      0.5          
    179000  -802.57672     -88.139617      219.82978      0.5          
    180000  -834.89541     -248.32273      217.48578      0.5          
    181000  -804.69956      53.58732       220.50646      0.5          
    182000  -813.24037      238.22111      222.51067      0.5          
    183000  -828.08672     -9.4081494      215.78209      0.5          
    184000  -835.55976     -45.284007      221.00299      0.5          
    185000  -849.61345     -145.24793      221.39512      0.5          
    186000  -791.03966     -320.34107      222.06237      0.5          
    187000  -901.73769      29.991513      220.33565      0.5          
    188000  -869.41846      37.675328      222.17028      0.5          
    189000  -974.77467      147.41762      218.29261      0.5          
    190000  -968.86504      49.749974      216.84544      0.5          
    191000  -932.14792      16.114464      221.8989       0.5          
    192000  -913.49057      24.762203      221.38225      0.5          
    193000  -849.07144      191.72046      222.31874      0.5          
    194000  -821.11813      79.626405      222.35718      0.5          
    195000  -992.51554     -318.49455      219.26165      0.5          
    196000  -971.89167      80.729509      220.30732      0.5          
    197000  -990.24242      241.60552      218.6489       0.5          
    198000  -924.13068     -142.3045       221.23619      0.5          
    199000  -944.08788      125.20551      219.08109      0.5          
    200000  -947.05298     -48.969007      221.06394      0.5          
Loop time of 640.38 on 32 procs for 200000 steps with 7050 atoms

Performance: 13.492 ns/day, 1.779 hours/ns, 312.314 timesteps/s, 2.202 Matom-step/s
99.5% CPU use with 32 MPI tasks x 1 OpenMP threads

MPI task timing breakdown:
Section |  min time  |  avg time  |  max time  |%varavg| %total
---------------------------------------------------------------
Pair    | 176.11     | 249.21     | 478.54     | 575.9 | 38.92
Bond    | 1.0804     | 1.4207     | 2.1661     |  33.6 |  0.22
Kspace  | 120.34     | 339.55     | 407.81     | 465.2 | 53.02
Neigh   | 4.8615     | 4.8793     | 4.9162     |   0.6 |  0.76
Comm    | 24.474     | 32.876     | 41.73      |  93.7 |  5.13
Output  | 0.014248   | 0.016409   | 0.073872   |   8.1 |  0.00
Modify  | 6.4461     | 11.404     | 20.476     | 134.3 |  1.78
Other   |            | 1.026      |            |       |  0.16

Nlocal:        220.312 ave         346 max         155 min
Histogram: 4 11 6 3 0 0 1 2 3 2
Nghost:        5513.25 ave        6302 max        4207 min
Histogram: 4 4 0 0 0 2 2 8 7 5
Neighs:        99550.4 ave      158656 max       75210 min
Histogram: 5 11 5 5 2 0 1 1 0 2

Total # of neighbors = 3185612
Ave neighs/atom = 451.85986
Ave special neighs/atom = 2
Neighbor list builds = 951
Dangerous builds = 0
System init for write_data ...
PPPM initialization ...
  using 12-bit tables for long-range coulomb (src/kspace.cpp:342)
  G vector (1/distance) = 0.20169663
  grid = 24 24 80
  stencil order = 5
  estimated absolute RMS force accuracy = 0.00286774
  estimated relative force accuracy = 8.6361139e-06
  using single precision FFTW3
  3d grid and FFT values/proc = 13357 4680
Generated 1 of 1 mixed pair_coeff terms from arithmetic mixing rule
Last active /omp style is kspace_style pppm/omp
