LAMMPS (29 Aug 2024 - Update 1)
  using 1 OpenMP thread(s) per MPI task
using multi-threaded neighbor list subroutines
Created orthogonal box = (0 0 0) to (40 40 240)
  2 by 2 by 8 MPI processor grid
Read molecule template co2mol:
# CO2 molecule file. TraPPE-Flex model.
  1 molecules
  0 fragments
  3 atoms with max type 2
  2 bonds with max type 1
  1 angles with max type 1
  0 dihedrals with max type 0
  0 impropers with max type 0
Molecule file loaded successfully
Created 6894 atoms
  using lattice units in orthogonal box = (0 0 0) to (40 40 240)
  create_atoms CPU = 0.205 seconds
Created 78 atoms
  using lattice units in orthogonal box = (0 0 0) to (40 40 240)
  create_atoms CPU = 0.008 seconds
Created 78 atoms
  using lattice units in orthogonal box = (0 0 0) to (40 40 240)
  create_atoms CPU = 0.009 seconds
Setting atom values ...
  2350 settings made for charge
Setting atom values ...
  4700 settings made for charge
lz=240
2350 atoms in group car
4700 atoms in group oxy
Balancing ...
PPPM initialization ...
  using 12-bit tables for long-range coulomb (src/kspace.cpp:342)
  G vector (1/distance) = 0.20169663
  grid = 24 24 80
  stencil order = 5
  estimated absolute RMS force accuracy = 0.00286774
  estimated relative force accuracy = 8.6361139e-06
  using single precision FFTW3
  3d grid and FFT values/proc = 5776 1728
Generated 1 of 1 mixed pair_coeff terms from arithmetic mixing rule
Last active /omp style is kspace_style pppm/omp
Neighbor list info ...
  update: every = 1 steps, delay = 0 steps, check = yes
  max neighbors/atom: 2000, page size: 100000
  master list distance cutoff = 17
  ghost atom cutoff = 17
  binsize = 8.5, bins = 5 5 29
  1 neighbor lists, perpetual/occasional/extra = 1 0 0
  (1) pair lj/cut/coul/long/omp, perpetual
      attributes: half, newton on, omp
      pair build: half/bin/newton/omp
      stencil: half/bin/3d
      bin: standard
 rebalancing time: 0.017 seconds
  iteration count = 14
  initial/final maximal load/proc = 594 261
  initial/final imbalance factor  = 2.6961702 1.1846809
  x cuts: 0 0.46875 1
  y cuts: 0 0.46875 1
  z cuts: 0 0.35546875 0.40234375 0.45117188 0.49804688 0.54882812 0.59765625 0.64453125 1
PPPM initialization ...
  using 12-bit tables for long-range coulomb (src/kspace.cpp:342)
  G vector (1/distance) = 0.20169663
  grid = 24 24 80
  stencil order = 5
  estimated absolute RMS force accuracy = 0.00286774
  estimated relative force accuracy = 8.6361139e-06
  using single precision FFTW3
  3d grid and FFT values/proc = 14000 4732
Generated 1 of 1 mixed pair_coeff terms from arithmetic mixing rule
Last active /omp style is kspace_style pppm/omp
Setting up cg style minimization ...
  Unit style    : real
  Current step  : 0
Per MPI rank memory allocation (min/avg/max) = 8.632 | 9.032 | 9.488 Mbytes
   Step          Temp          E_pair         E_mol          TotEng         Press     
         0   0              49336.872      7.9026918e-12  49336.872      43177.231    
      2765   0             -11741.18       21.809358     -11719.37      -379.23674    
Loop time of 23.1026 on 32 procs for 2765 steps with 7050 atoms

99.1% CPU use with 32 MPI tasks x 1 OpenMP threads

Minimization stats:
  Stopping criterion = energy tolerance
  Energy initial, next-to-last, final = 
      49336.8715483816  -11719.3620917968   -11719.370175557
  Force two-norm initial, final = 12256.268 9.4163867
  Force max component initial, final = 805.65186 1.5262627
  Final line search alpha, max atom move = 0.066571042 0.1016049
  Iterations, force evaluations = 2765 5475

MPI task timing breakdown:
Section |  min time  |  avg time  |  max time  |%varavg| %total
---------------------------------------------------------------
Pair    | 2.3168     | 12.779     | 17.72      | 125.3 | 55.31
Bond    | 0.033756   | 0.046955   | 0.058534   |   3.0 |  0.20
Kspace  | 4.1067     | 9.0979     | 19.61      | 149.0 | 39.38
Neigh   | 0.12658    | 0.12774    | 0.12898    |   0.2 |  0.55
Comm    | 0.64256    | 0.77295    | 0.84597    |   6.3 |  3.35
Output  | 0          | 0          | 0          |   0.0 |  0.00
Modify  | 0.012275   | 0.024467   | 0.043674   |   5.5 |  0.11
Other   |            | 0.2538     |            |       |  1.10

Nlocal:        220.312 ave         315 max          66 min
Histogram: 3 5 0 0 0 0 3 9 8 4
Nghost:        5631.06 ave        7725 max        3354 min
Histogram: 7 1 0 4 4 0 2 5 5 4
Neighs:         115787 ave      184508 max        3772 min
Histogram: 4 1 3 0 0 1 6 4 8 5

Total # of neighbors = 3705193
Ave neighs/atom = 525.55929
Ave special neighs/atom = 2
Neighbor list builds = 30
Dangerous builds = 0
System init for write_data ...
PPPM initialization ...
  using 12-bit tables for long-range coulomb (src/kspace.cpp:342)
  G vector (1/distance) = 0.20169663
  grid = 24 24 80
  stencil order = 5
  estimated absolute RMS force accuracy = 0.00286774
  estimated relative force accuracy = 8.6361139e-06
  using single precision FFTW3
  3d grid and FFT values/proc = 14000 4732
Generated 1 of 1 mixed pair_coeff terms from arithmetic mixing rule
Last active /omp style is kspace_style pppm/omp
#Step Pxx Pyy Pzz
#Step temp press ke pe etotal ecouple econserve
#Step px py pz COM_vx COM_vy COM_vz
PPPM initialization ...
  using 12-bit tables for long-range coulomb (src/kspace.cpp:342)
  G vector (1/distance) = 0.20169663
  grid = 24 24 80
  stencil order = 5
  estimated absolute RMS force accuracy = 0.00286774
  estimated relative force accuracy = 8.6361139e-06
  using single precision FFTW3
  3d grid and FFT values/proc = 14000 4732
Generated 1 of 1 mixed pair_coeff terms from arithmetic mixing rule
Last active /omp style is kspace_style pppm/omp
Setting up Verlet run ...
  Unit style    : real
  Current step  : 0
  Time step     : 0.5
Per MPI rank memory allocation (min/avg/max) = 8.141 | 8.27 | 8.622 Mbytes
   Step         TotEng         Press           Temp            Dt      
         0  -7096.7896      171.04629      220            0.5          
      1000  -3023.2119      989.55942      216.21675      0.5          
      2000  -2436.532       1313.7375      200.55798      0.5          
      3000  -1998.2564     -158.2032       212.91835      0.5          
      4000  -1904.5506     -39.722209      228.49968      0.5          
      5000  -1797.9178      83.129385      224.75724      0.5          
      6000  -1576.0899      2.4490644      218.73296      0.5          
      7000  -1521.7771      21.211583      213.32359      0.5          
      8000  -1402.8347     -295.27304      213.70227      0.5          
      9000  -1232.1443     -191.55173      222.54052      0.5          
     10000  -1044.8047     -187.76055      220.97578      0.5          
     11000  -832.20014     -459.52227      221.37029      0.5          
     12000  -828.05951     -253.55028      217.48184      0.5          
     13000  -661.6958      -68.359973      225.03251      0.5          
     14000  -587.80887     -252.96177      222.24637      0.5          
     15000  -577.12631     -83.137338      222.55557      0.5          
     16000  -594.74663     -241.00145      219.51481      0.5          
     17000  -590.14097     -318.3111       220.09452      0.5          
     18000  -707.40871      171.70467      221.18877      0.5          
     19000  -768.54042     -196.79472      218.1008       0.5          
     20000  -820.39307     -272.37365      221.5102       0.5          
     21000  -878.34015      165.74878      217.12855      0.5          
     22000  -873.71641      19.713425      221.50635      0.5          
     23000  -877.9622      -211.09821      219.43112      0.5          
     24000  -874.3396       138.20705      219.83173      0.5          
     25000  -840.63221     -38.887338      218.63742      0.5          
     26000  -801.63776     -7.7141731      219.7393       0.5          
     27000  -852.02129     -232.05294      219.71442      0.5          
     28000  -888.60033     -142.66235      219.55855      0.5          
     29000  -869.32586      224.47157      220.71792      0.5          
     30000  -904.60052     -91.586766      218.30352      0.5          
     31000  -730.13828     -203.20342      220.12381      0.5          
     32000  -884.52244     -76.451084      215.4779       0.5          
     33000  -851.26063     -15.818674      217.22546      0.5          
     34000  -673.93067     -100.67652      222.27759      0.5          
     35000  -758.40927     -112.31981      218.63161      0.5          
     36000  -786.33186      96.76871       216.68321      0.5          
     37000  -785.43396      70.893099      219.21         0.5          
     38000  -644.2856       115.11418      221.02217      0.5          
     39000  -615.93046     -295.82927      220.13402      0.5          
     40000  -641.23996     -211.11325      219.8269       0.5          
     41000  -623.23615      1.6802918      221.00665      0.5          
     42000  -619.02254     -159.80982      221.9144       0.5          
     43000  -526.62525      38.343633      223.6205       0.5          
     44000  -689.57736     -74.129814      220.06113      0.5          
     45000  -655.69381     -312.67632      221.17845      0.5          
     46000  -663.22677      44.262747      222.37023      0.5          
     47000  -679.79954      139.34902      221.17041      0.5          
     48000  -712.69484     -81.789876      221.82407      0.5          
     49000  -777.58099     -94.57482       218.46011      0.5          
     50000  -690.34241      330.64924      220.73071      0.5          
     51000  -824.88331      205.71937      217.74937      0.5          
     52000  -768.51771     -180.64097      219.49968      0.5          
     53000  -757.39368     -0.99124868     217.33318      0.5          
     54000  -637.74004      44.817519      218.80192      0.5          
     55000  -832.04563      81.084393      217.00974      0.5          
     56000  -769.75529     -16.238993      218.12918      0.5          
     57000  -679.50311     -373.29303      221.64646      0.5          
     58000  -715.10435     -138.70055      222.31238      0.5          
     59000  -819.05006      56.174088      218.54583      0.5          
     60000  -869.51616     -295.44725      218.23845      0.5          
     61000  -709.70697     -249.04298      220.51692      0.5          
     62000  -760.94414      113.16774      217.04166      0.5          
     63000  -821.61011      185.34044      218.62298      0.5          
     64000  -596.96755     -239.25062      224.84253      0.5          
     65000  -711.4949       93.183289      219.05715      0.5          
     66000  -826.94138     -95.477756      216.6563       0.5          
     67000  -875.84356     -68.764276      217.14499      0.5          
     68000  -828.42275     -262.52236      216.18972      0.5          
     69000  -744.20255     -105.54511      221.04977      0.5          
     70000  -722.0126      -12.977984      221.16691      0.5          
     71000  -761.28373     -25.052269      223.09326      0.5          
     72000  -913.41952     -36.133353      217.16488      0.5          
     73000  -869.68322      46.376936      218.25566      0.5          
     74000  -757.40313      199.69815      222.30174      0.5          
     75000  -944.55611     -126.98443      218.4681       0.5          
     76000  -923.02132     -63.736829      215.7262       0.5          
     77000  -995.70028      56.048008      215.57781      0.5          
     78000  -855.83785      164.42763      218.87721      0.5          
     79000  -875.51559     -328.71509      218.24209      0.5          
     80000  -884.82452     -4.829746       218.28834      0.5          
     81000  -848.12161     -3.2900742      218.80259      0.5          
     82000  -739.28147      58.391868      224.34297      0.5          
     83000  -813.09376     -0.3796857      217.93744      0.5          
     84000  -832.05774      99.558712      218.12032      0.5          
     85000  -779.01315      195.12459      220.55072      0.5          
     86000  -854.30884     -244.21176      216.86078      0.5          
     87000  -740.95484     -79.871695      222.38192      0.5          
     88000  -723.10388      67.656917      220.62157      0.5          
     89000  -802.71199     -4.6282325      221.61098      0.5          
     90000  -864.24804     -226.93613      217.07213      0.5          
     91000  -848.27955     -128.33788      219.59056      0.5          
     92000  -775.86704     -42.769583      221.46671      0.5          
     93000  -871.40317      191.00212      219.37533      0.5          
     94000  -880.75508     -122.56974      217.53514      0.5          
     95000  -892.347       -100.17932      218.47001      0.5          
     96000  -990.06065      178.46751      218.99517      0.5          
     97000  -881.44177      40.940976      219.57527      0.5          
     98000  -855.54402      82.063881      220.64186      0.5          
     99000  -972.74311     -2.1087612      220.90624      0.5          
    100000  -1041.3194      104.78407      216.71252      0.5          
    101000  -993.46137     -188.68883      222.61948      0.5          
    102000  -1096.4638     -32.095534      219.01157      0.5          
    103000  -1024.9846      73.20106       221.12898      0.5          
    104000  -1094.9706      90.935015      221.80503      0.5          
    105000  -1092.8627     -151.56499      219.44144      0.5          
    106000  -1180.9243      109.14118      219.00037      0.5          
    107000  -1193.9996      216.07985      218.58973      0.5          
    108000  -1150.1827      53.940074      222.90993      0.5          
    109000  -1187.7127      34.77099       218.80939      0.5          
    110000  -1181.2693      51.416404      219.27895      0.5          
    111000  -1154.2815     -112.4502       221.75785      0.5          
    112000  -1195.4181      192.41426      219.58988      0.5          
    113000  -1320.2316      95.351492      217.09256      0.5          
    114000  -1003.2997      91.243907      222.33138      0.5          
    115000  -1037.2307      9.5942691      218.81112      0.5          
    116000  -925.44958     -510.70932      220.40164      0.5          
    117000  -927.75317     -231.75105      224.00949      0.5          
    118000  -995.23851      247.15402      220.80321      0.5          
    119000  -931.53027      212.71387      217.49552      0.5          
    120000  -834.11948     -91.016414      225.11299      0.5          
    121000  -914.83791      26.637766      222.22441      0.5          
    122000  -924.88923     -92.822703      221.16317      0.5          
    123000  -784.12959      112.32261      224.94911      0.5          
    124000  -885.36371     -229.99807      218.00417      0.5          
    125000  -867.51291     -75.268086      216.93942      0.5          
    126000  -860.27559     -37.847532      219.51969      0.5          
    127000  -880.6599      -169.6596       220.03908      0.5          
    128000  -808.12872     -208.111        221.92252      0.5          
    129000  -841.73636     -117.7912       220.27921      0.5          
    130000  -628.64079     -79.84329       225.64657      0.5          
    131000  -563.36999      112.14448      227.46024      0.5          
    132000  -766.76335     -23.701777      219.16079      0.5          
    133000  -837.22612      104.71505      217.55191      0.5          
    134000  -878.57028     -154.62717      215.58475      0.5          
    135000  -808.84867     -221.95129      218.26304      0.5          
    136000  -692.0113      -20.852443      224.42727      0.5          
    137000  -727.404        54.346097      221.49902      0.5          
    138000  -746.00801     -73.993247      221.3723       0.5          
    139000  -750.53424      241.83006      225.1964       0.5          
    140000  -693.10707      158.62203      221.7341       0.5          
    141000  -877.95197     -88.314242      219.59633      0.5          
    142000  -934.45537     -229.61747      221.75841      0.5          
    143000  -1010.0342      34.079971      218.82092      0.5          
    144000  -867.95727      122.60188      222.17369      0.5          
    145000  -969.40717     -26.227014      217.47619      0.5          
    146000  -978.72748      226.35647      218.88204      0.5          
    147000  -937.88623      99.248896      220.4868       0.5          
    148000  -915.50039      47.936468      222.73187      0.5          
    149000  -844.46763      107.82276      224.85385      0.5          
    150000  -936.95312      27.183059      221.07096      0.5          
    151000  -885.47853     -14.7695        223.89954      0.5          
    152000  -991.26467      11.595041      220.84569      0.5          
    153000  -1073.0176      246.73909      215.2689       0.5          
    154000  -1066.5188     -147.33216      217.94497      0.5          
    155000  -1025.2448      46.043661      219.92501      0.5          
    156000  -1001.1503     -202.32025      218.55838      0.5          
    157000  -1018.7095      244.14428      217.31207      0.5          
    158000  -915.91607      65.460594      220.91573      0.5          
    159000  -1044.8948     -48.360939      217.49233      0.5          
    160000  -1073.5166      188.81222      216.84244      0.5          
    161000  -1006.3037      73.179199      220.03893      0.5          
    162000  -921.30479     -99.016554      223.13096      0.5          
    163000  -955.03713     -67.465606      221.95373      0.5          
    164000  -884.13559      57.328713      223.35362      0.5          
    165000  -906.80058      110.05716      220.35637      0.5          
    166000  -883.97788     -248.99524      220.03824      0.5          
    167000  -972.5804      -20.532112      220.22444      0.5          
    168000  -968.53539     -111.03019      218.85421      0.5          
    169000  -809.69711     -168.76359      222.11768      0.5          
    170000  -844.40341     -191.81762      218.91232      0.5          
    171000  -874.03338      52.807927      221.10914      0.5          
    172000  -836.49493     -67.747244      222.40256      0.5          
    173000  -831.99119     -140.99719      217.45082      0.5          
    174000  -829.76061      0.34897495     218.33675      0.5          
    175000  -774.21217     -232.91017      222.99369      0.5          
    176000  -782.94284     -312.41083      222.30259      0.5          
    177000  -861.02109     -60.917242      218.94443      0.5          
    178000  -872.80921     -0.1039739      222.12894      0.5          
    179000  -802.57672     -88.139617      219.82978      0.5          
    180000  -834.89541     -248.32273      217.48578      0.5          
    181000  -804.69956      53.58732       220.50646      0.5          
    182000  -813.24037      238.22111      222.51067      0.5          
    183000  -828.08672     -9.4081494      215.78209      0.5          
    184000  -835.55976     -45.284007      221.00299      0.5          
    185000  -849.61345     -145.24793      221.39512      0.5          
    186000  -791.03966     -320.34107      222.06237      0.5          
    187000  -901.73769      29.991513      220.33565      0.5          
    188000  -869.41846      37.675328      222.17028      0.5          
    189000  -974.77467      147.41762      218.29261      0.5          
    190000  -968.86504      49.749974      216.84544      0.5          
    191000  -932.14792      16.114464      221.8989       0.5          
    192000  -913.49057      24.762203      221.38225      0.5          
    193000  -849.07144      191.72046      222.31874      0.5          
    194000  -821.11813      79.626405      222.35718      0.5          
    195000  -992.51554     -318.49455      219.26165      0.5          
    196000  -971.89167      80.729509      220.30732      0.5          
    197000  -990.24242      241.60552      218.6489       0.5          
    198000  -924.13068     -142.3045       221.23619      0.5          
    199000  -944.08788      125.20551      219.08109      0.5          
    200000  -947.05298     -48.969007      221.06394      0.5          
    201000  -936.98661     -34.849826      218.98924      0.5          
    202000  -948.11438     -52.272536      221.17151      0.5          
    203000  -917.72472     -35.240015      220.72145      0.5          
    204000  -969.18653      45.486238      217.77665      0.5          
    205000  -883.05335      149.23113      221.29387      0.5          
    206000  -864.87319      201.13738      223.20808      0.5          
    207000  -1023.7476      116.13991      218.31305      0.5          
    208000  -985.07423      40.851961      217.69011      0.5          
    209000  -1018.3415     -126.66076      215.9643       0.5          
    210000  -900.15208     -2.0468874      221.15108      0.5          
    211000  -925.89968      134.84422      217.56408      0.5          
    212000  -785.74256     -164.25433      222.10687      0.5          
    213000  -823.17061     -334.98066      220.66697      0.5          
    214000  -964.30239      176.23308      218.39249      0.5          
    215000  -834.67649      176.48401      221.72809      0.5          
    216000  -855.38893     -158.00252      218.84386      0.5          
    217000  -789.33066     -4.0204962      222.24382      0.5          
    218000  -791.80131      400.44783      221.70735      0.5          
    219000  -945.60396     -20.746399      216.0346       0.5          
    220000  -857.8794      -259.19652      220.14893      0.5          
    221000  -856.74566     -241.30474      219.31194      0.5          
    222000  -857.94201      337.13361      219.42937      0.5          
    223000  -784.90258     -171.24197      221.20187      0.5          
    224000  -833.7833      -3.3364349      220.17835      0.5          
    225000  -798.08651      113.86295      223.69725      0.5          
    226000  -863.09718     -275.74981      221.22841      0.5          
    227000  -828.24352     -108.63941      222.02987      0.5          
    228000  -942.35402      522.99254      216.27875      0.5          
    229000  -921.93452      240.89716      220.52835      0.5          
    230000  -898.61431     -318.09661      217.38016      0.5          
    231000  -919.95417      238.03615      220.94904      0.5          
    232000  -880.3533       59.907274      220.6921       0.5          
    233000  -958.82433     -297.16882      221.43546      0.5          
    234000  -1008.079      -93.9709        219.1715       0.5          
    235000  -927.93444      36.403285      220.45649      0.5          
    236000  -886.12139      108.63334      222.33793      0.5          
    237000  -992.71866      20.828415      217.76954      0.5          
    238000  -1009.3512      171.24446      218.09164      0.5          
    239000  -967.16633      19.376181      218.2765       0.5          
    240000  -922.4073      -98.539697      222.03756      0.5          
    241000  -886.88388     -47.794803      220.82591      0.5          
    242000  -971.66357      14.343846      220.50954      0.5          
    243000  -913.38626     -88.525838      222.32176      0.5          
    244000  -891.96705      112.23026      220.70266      0.5          
    245000  -847.54383      97.185844      223.48311      0.5          
    246000  -962.46389      160.58372      221.02778      0.5          
    247000  -914.64164     -124.72121      221.01527      0.5          
    248000  -962.64725     -186.67503      218.8193       0.5          
    249000  -912.4133      -90.235246      219.11318      0.5          
    250000  -854.9515      -41.507959      221.95167      0.5          
    251000  -949.32711      84.870617      217.97353      0.5          
    252000  -954.44669      37.969632      214.76621      0.5          
    253000  -861.38982     -89.43335       220.34698      0.5          
    254000  -809.66699      0.081127089    221.83597      0.5          
    255000  -894.52941      0.32048388     217.56651      0.5          
    256000  -784.55875     -162.17623      218.75556      0.5          
    257000  -709.89443      48.942219      223.09258      0.5          
    258000  -768.87547      35.026931      220.05827      0.5          
    259000  -843.07278     -8.4323414      222.25779      0.5          
    260000  -859.40407     -240.01618      220.66282      0.5          
    261000  -877.1313       50.740666      219.70874      0.5          
    262000  -799.79737      180.51235      220.48678      0.5          
    263000  -784.98604     -33.360006      220.15166      0.5          
    264000  -756.83198      211.28354      224.62454      0.5          
    265000  -844.43643     -323.87147      219.5934       0.5          
    266000  -955.40357     -77.606824      217.19993      0.5          
    267000  -869.34426      204.16381      220.5595       0.5          
    268000  -794.15534     -78.714789      219.2355       0.5          
    269000  -802.8131      -248.20632      221.20881      0.5          
    270000  -823.71723      227.86734      221.50763      0.5          
    271000  -771.62535      301.37063      221.03259      0.5          
    272000  -897.8352       183.82874      219.61266      0.5          
    273000  -944.59143     -91.659333      217.55574      0.5          
    274000  -913.21948      74.315451      216.37067      0.5          
    275000  -889.09742      122.4248       224.79308      0.5          
    276000  -953.57361      112.55671      219.88781      0.5          
    277000  -786.80912      239.29463      223.70617      0.5          
    278000  -897.7603      -167.76692      220.01892      0.5          
    279000  -855.72275     -103.37883      221.18231      0.5          
    280000  -972.71732     -2.5137026      220.83138      0.5          
    281000  -858.58595      23.874466      221.41828      0.5          
    282000  -973.02663     -46.223933      213.70706      0.5          
    283000  -864.52518     -12.820787      219.8265       0.5          
    284000  -970.1537      -58.462149      217.40026      0.5          
    285000  -806.04225      199.55792      221.57899      0.5          
    286000  -996.72218     -111.98776      218.58626      0.5          
    287000  -839.13608     -279.60745      226.75433      0.5          
    288000  -868.56578      31.443848      221.11906      0.5          
    289000  -898.72964      41.533176      220.77365      0.5          
    290000  -993.55891     -38.202764      217.54132      0.5          
    291000  -859.7954       16.660198      221.07606      0.5          
    292000  -874.58244     -144.26556      221.43234      0.5          
    293000  -881.16337     -94.995444      220.26276      0.5          
    294000  -967.21693     -132.66646      217.40372      0.5          
    295000  -874.69053     -102.76592      218.47572      0.5          
    296000  -872.84744     -82.51687       218.18069      0.5          
    297000  -972.39154     -141.55036      217.59421      0.5          
    298000  -887.98417      91.685955      218.31293      0.5          
    299000  -905.5645       64.619513      218.30516      0.5          
    300000  -700.98236      218.63294      224.62265      0.5          
    301000  -879.47068     -101.55835      217.42185      0.5          
    302000  -821.66866     -147.97657      222.39763      0.5          
    303000  -887.86378     -75.154208      218.75687      0.5          
    304000  -866.87521      5.2353422      218.6722       0.5          
    305000  -864.58064     -158.58995      219.58396      0.5          
    306000  -885.86317     -127.08492      217.81641      0.5          
    307000  -922.92531      78.846067      218.215        0.5          
    308000  -985.27577      271.65169      216.98688      0.5          
    309000  -951.47674     -207.34411      216.5352       0.5          
    310000  -895.65965      110.03154      217.91146      0.5          
    311000  -927.82137      108.59198      216.41789      0.5          
    312000  -835.68586     -199.10345      218.35877      0.5          
    313000  -887.11686     -104.99349      219.35783      0.5          
    314000  -870.94247     -42.941861      222.32003      0.5          
    315000  -729.27498      101.56177      225.79879      0.5          
    316000  -829.98981      125.89275      219.1423       0.5          
    317000  -755.58445     -1.5094278      222.57015      0.5          
    318000  -819.52816     -21.350578      221.28253      0.5          
    319000  -822.48637      18.179735      223.62506      0.5          
    320000  -808.32227      17.822349      220.67863      0.5          
    321000  -925.30852      243.57154      217.36495      0.5          
    322000  -897.82139      107.94778      217.37207      0.5          
    323000  -934.74866     -58.526114      218.87465      0.5          
    324000  -814.36549     -179.68734      222.92736      0.5          
    325000  -877.59251     -82.747797      217.15718      0.5          
    326000  -903.86674      35.152002      217.07514      0.5          
    327000  -863.68573     -114.15852      219.45571      0.5          
    328000  -711.6182      -164.83324      223.84734      0.5          
    329000  -791.01171     -98.019927      222.99659      0.5          
    330000  -817.32154     -55.921898      219.74576      0.5          
    331000  -736.98557      267.03778      222.43646      0.5          
    332000  -972.43108     -71.114339      218.10634      0.5          
    333000  -953.86372     -243.89502      220.49148      0.5          
    334000  -847.40486      33.023922      218.28065      0.5          
    335000  -871.95032     -420.9795       220.90861      0.5          
    336000  -778.8187      -165.12796      221.54237      0.5          
    337000  -841.48523      121.29122      219.60204      0.5          
    338000  -913.33015     -101.71273      217.63264      0.5          
    339000  -719.57727      448.156        219.51338      0.5          
    340000  -807.82529      21.875909      222.40263      0.5          
    341000  -858.46257     -161.73087      219.80802      0.5          
    342000  -912.45461     -9.7418637      217.99017      0.5          
    343000  -965.79003     -141.67258      220.61888      0.5          
    344000  -997.02877      91.569788      218.75952      0.5          
    345000  -870.20459      227.79646      220.28795      0.5          
    346000  -803.11636      244.51061      222.9285       0.5          
    347000  -952.54099     -77.320217      220.62497      0.5          
    348000  -998.62838     -66.666495      217.61882      0.5          
    349000  -990.78147      245.42097      213.51329      0.5          
    350000  -859.73703     -35.955913      219.4911       0.5          
    351000  -944.18778     -23.592801      215.87347      0.5          
    352000  -958.60608      135.59453      215.0577       0.5          
    353000  -821.8983       21.472636      221.34886      0.5          
    354000  -653.59494     -7.3847985      225.87082      0.5          
    355000  -715.48427     -113.1543       222.65221      0.5          
    356000  -695.84155      208.89968      221.01682      0.5          
    357000  -753.6505       69.667714      221.55382      0.5          
    358000  -842.6515       141.16398      220.58669      0.5          
    359000  -797.3571       91.081276      216.1663       0.5          
    360000  -716.35272      45.759657      220.0485       0.5          
    361000  -777.13042      159.98945      214.77605      0.5          
    362000  -666.5407      -127.20271      221.86145      0.5          
    363000  -733.59849     -342.4568       222.77735      0.5          
    364000  -733.88974      73.888962      222.34405      0.5          
    365000  -787.08252     -61.688289      219.67377      0.5          
    366000  -748.19309     -138.91838      220.04015      0.5          
    367000  -820.39986     -397.52392      215.92476      0.5          
    368000  -781.48104     -175.45422      216.59385      0.5          
    369000  -752.78922      94.802668      219.54892      0.5          
    370000  -702.36882     -150.51677      219.77345      0.5          
    371000  -634.16362     -140.02601      222.40028      0.5          
    372000  -801.99863     -25.299604      218.57181      0.5          
    373000  -736.11208     -194.62791      220.64687      0.5          
    374000  -834.56196     -6.1264066      218.50359      0.5          
    375000  -788.54396      19.150529      222.41005      0.5          
    376000  -811.45471      1.1915775      219.59065      0.5          
    377000  -796.68227     -185.7079       220.72272      0.5          
    378000  -848.91454     -69.862082      218.47442      0.5          
    379000  -817.65172      235.19427      222.70349      0.5          
    380000  -855.64904      149.82265      219.24412      0.5          
    381000  -812.48695      99.831816      223.58342      0.5          
    382000  -1028.1731     -46.854658      218.65893      0.5          
    383000  -954.67492      14.501554      219.35442      0.5          
    384000  -929.98683      222.82925      219.94379      0.5          
    385000  -1007.7323     -229.91388      218.20023      0.5          
    386000  -881.23081     -200.23049      222.83362      0.5          
    387000  -821.55757      243.88719      218.93773      0.5          
    388000  -933.35446      168.22992      221.36403      0.5          
    389000  -922.88507     -394.67838      220.80416      0.5          
    390000  -910.9028       208.22685      218.85377      0.5          
    391000  -812.55914      156.61434      221.08147      0.5          
    392000  -905.9842       163.92819      218.56466      0.5          
    393000  -785.97305     -22.079113      224.5559       0.5          
    394000  -895.72152     -121.64488      219.38336      0.5          
    395000  -753.40797     -11.003282      223.94622      0.5          
    396000  -905.21781      8.2934564      216.79021      0.5          
    397000  -765.88547      174.19579      222.90294      0.5          
    398000  -903.82         84.926821      215.48281      0.5          
    399000  -869.91777     -109.29247      217.06428      0.5          
    400000  -656.08091     -100.49238      226.20604      0.5          
    401000  -768.84097      30.522966      219.77266      0.5          
    402000  -818.3536       50.378867      218.40195      0.5          
    403000  -741.47102     -173.31886      219.73391      0.5          
    404000  -775.40783     -11.274583      218.40644      0.5          
    405000  -743.52897      71.267873      221.11594      0.5          
    406000  -727.16396     -298.72228      217.42893      0.5          
    407000  -671.12783      243.41939      219.23632      0.5          
    408000  -649.16521      133.45869      223.44771      0.5          
    409000  -740.20382     -437.56686      218.09901      0.5          
    410000  -761.08553     -295.1507       220.78385      0.5          
    411000  -784.67611     -69.808603      217.2218       0.5          
    412000  -725.40971      53.514376      219.52801      0.5          
    413000  -723.90057     -31.938091      221.07463      0.5          
    414000  -750.8564      -9.2882059      219.49957      0.5          
    415000  -883.79424     -261.22343      216.29292      0.5          
    416000  -824.94304     -54.635685      217.79589      0.5          
    417000  -839.51762     -1.0760242      219.4623       0.5          
    418000  -834.91337     -89.821397      217.6513       0.5          
    419000  -864.66507      117.38843      219.21978      0.5          
    420000  -810.3714      -21.587877      219.50765      0.5          
    421000  -909.87016      24.403525      217.61648      0.5          
    422000  -867.39207      286.96411      220.09432      0.5          
    423000  -805.79423     -57.304164      222.2251       0.5          
    424000  -755.47988      8.2409201      222.66424      0.5          
    425000  -794.34531     -5.5177995      225.45814      0.5          
    426000  -863.56229      391.58198      219.697        0.5          
    427000  -829.04438      86.350031      220.09216      0.5          
    428000  -951.88254     -146.80868      214.98204      0.5          
    429000  -787.16821      121.40031      221.10827      0.5          
    430000  -770.48054      380.52398      221.42672      0.5          
    431000  -765.4841       29.960884      221.0031       0.5          
    432000  -869.3203       175.75131      216.53947      0.5          
    433000  -786.94771      95.693241      222.15244      0.5          
    434000  -876.51774      112.79876      220.32423      0.5          
    435000  -856.53894      234.73543      220.42795      0.5          
    436000  -731.04553     -22.849169      223.01553      0.5          
    437000  -797.0215      -47.973685      220.85561      0.5          
    438000  -774.20911     -33.092545      218.05112      0.5          
    439000  -753.60125     -67.998608      220.66416      0.5          
    440000  -849.96368      28.761517      220.85982      0.5          
    441000  -780.43348     -104.42065      218.07059      0.5          
    442000  -680.51946     -257.59885      223.60657      0.5          
    443000  -699.20708      5.5988416      219.97419      0.5          
    444000  -633.83322      38.051681      224.62914      0.5          
    445000  -797.15071      113.52851      219.09704      0.5          
    446000  -784.44714     -105.7165       216.95535      0.5          
    447000  -719.37098     -258.27419      220.63685      0.5          
    448000  -874.02419     -28.967966      216.4361       0.5          
    449000  -858.67017      55.490705      217.58202      0.5          
    450000  -869.55872      25.523763      220.62647      0.5          
    451000  -898.76465     -385.09316      215.86259      0.5          
    452000  -727.67871     -139.37495      222.75279      0.5          
    453000  -773.49278      53.89483       223.16181      0.5          
    454000  -843.76936     -177.4438       221.89845      0.5          
    455000  -844.74281      9.1453675      220.67623      0.5          
    456000  -792.28566     -103.11086      219.8743       0.5          
    457000  -728.75696     -116.46221      220.32787      0.5          
    458000  -775.00164      38.629397      221.89245      0.5          
    459000  -886.3624       48.258267      220.47353      0.5          
    460000  -843.25299     -77.220585      219.8218       0.5          
    461000  -825.01115      354.20534      221.71477      0.5          
    462000  -857.59074     -47.919021      217.88898      0.5          
    463000  -702.33057     -231.88589      222.27542      0.5          
    464000  -826.707        274.59197      221.3188       0.5          
    465000  -771.79079      77.490952      221.87373      0.5          
    466000  -834.19756     -35.151394      219.61689      0.5          
    467000  -808.20154      213.29672      218.70043      0.5          
    468000  -852.84891     -50.735918      217.83616      0.5          
    469000  -844.61555     -321.50362      221.9151       0.5          
    470000  -773.7147       149.81201      220.05887      0.5          
    471000  -746.24173     -11.207207      222.54173      0.5          
    472000  -844.41296      39.982001      218.98292      0.5          
    473000  -960.69193      138.88519      216.68063      0.5          
    474000  -727.47337      16.232204      220.76899      0.5          
    475000  -772.8233       17.390497      220.81237      0.5          
    476000  -799.30577     -6.3843313      221.37928      0.5          
    477000  -811.8509      -189.97435      220.43369      0.5          
    478000  -794.92626      61.421882      220.13046      0.5          
    479000  -855.74973     -163.96132      219.50262      0.5          
    480000  -836.94147     -405.52833      218.53912      0.5          
    481000  -840.06391      140.7374       216.74848      0.5          
    482000  -735.92521      356.75647      222.0268       0.5          
    483000  -829.39254     -168.66747      219.14047      0.5          
    484000  -827.81651      1.740108       220.83832      0.5          
    485000  -835.12023      113.04985      219.49641      0.5          
    486000  -753.93954      106.23608      223.49533      0.5          
    487000  -773.37003     -150.24549      223.30053      0.5          
    488000  -779.36991      141.63606      221.28711      0.5          
    489000  -879.21256      45.094134      217.95266      0.5          
    490000  -981.6896      -312.40269      215.71273      0.5          
    491000  -945.37294     -6.6549751      217.22931      0.5          
    492000  -959.35797     -6.8812588      220.08985      0.5          
    493000  -891.48847     -160.71803      221.0279       0.5          
    494000  -861.64742     -220.38956      219.59381      0.5          
    495000  -989.30337      106.15086      216.7996       0.5          
    496000  -909.47239     -202.11656      219.97472      0.5          
    497000  -792.07911      215.73146      221.73664      0.5          
    498000  -748.54899      208.37993      221.38465      0.5          
    499000  -669.52662     -128.15243      221.6643       0.5          
    500000  -830.94612      53.995295      222.58286      0.5          
    501000  -867.67102      178.48945      218.17417      0.5          
    502000  -897.63402      55.649633      218.79253      0.5          
    503000  -798.08085     -66.40811       222.06008      0.5          
    504000  -920.49348     -182.02351      218.13769      0.5          
    505000  -798.4578       85.037926      221.32167      0.5          
    506000  -697.35829     -38.186069      221.47094      0.5          
    507000  -712.18583     -90.210646      220.8394       0.5          
    508000  -753.73271      99.390761      221.40406      0.5          
    509000  -765.66991     -205.52147      218.00347      0.5          
    510000  -887.1665      -149.39114      214.72972      0.5          
    511000  -787.20537      237.59221      219.32527      0.5          
    512000  -704.88531     -117.75049      220.47469      0.5          
    513000  -738.13217     -42.403287      221.01797      0.5          
    514000  -850.03934     -161.27838      215.90528      0.5          
    515000  -838.575       -344.09222      217.26149      0.5          
    516000  -826.55292      39.836152      218.14973      0.5          
    517000  -744.81451      199.88623      222.52544      0.5          
    518000  -817.82811      11.396969      217.79485      0.5          
    519000  -776.98786      142.09419      220.49283      0.5          
    520000  -843.25735     -206.81875      217.06204      0.5          
    521000  -662.02088      339.70726      224.71457      0.5          
    522000  -814.22912      131.17514      219.89034      0.5          
    523000  -777.60554      88.893435      223.0929       0.5          
    524000  -924.99846      30.059091      214.80825      0.5          
    525000  -811.88849     -36.550014      219.76466      0.5          
    526000  -853.54825      190.03931      219.90869      0.5          
    527000  -824.4716      -8.1984639      221.33485      0.5          
    528000  -884.97834      54.297553      218.25976      0.5          
    529000  -904.10386     -269.06827      218.48269      0.5          
    530000  -878.14214      44.872314      220.93189      0.5          
    531000  -852.06863      128.00217      221.25715      0.5          
    532000  -825.20687     -147.65414      219.33599      0.5          
    533000  -798.93207     -203.17316      223.60098      0.5          
    534000  -833.73514      41.896851      222.18327      0.5          
    535000  -815.82492      120.3926       217.85376      0.5          
    536000  -876.26817      56.963693      218.07574      0.5          
    537000  -812.31903     -112.69863      220.90303      0.5          
    538000  -730.18842     -85.460454      220.75615      0.5          
    539000  -787.0344       256.86293      220.53653      0.5          
    540000  -799.10201     -164.01332      221.81372      0.5          
    541000  -803.49605     -154.11014      223.038        0.5          
    542000  -840.47521      182.90338      218.75861      0.5          
    543000  -731.32748      86.395429      221.90306      0.5          
    544000  -884.31537     -185.4926       219.47125      0.5          
    545000  -702.85113     -79.004945      225.52901      0.5          
    546000  -719.21984      10.048494      220.37384      0.5          
    547000  -776.61838     -14.462678      220.83285      0.5          
    548000  -895.85973      101.42283      218.67158      0.5          
    549000  -800.19027     -96.776867      223.35862      0.5          
    550000  -830.51469     -32.508493      218.08577      0.5          
    551000  -848.49584      254.66064      219.70652      0.5          
    552000  -765.04859      61.565244      221.45689      0.5          
    553000  -775.39651      72.427495      222.26599      0.5          
    554000  -718.00056      336.09664      220.19217      0.5          
    555000  -825.55621      87.68375       221.80139      0.5          
    556000  -890.7055      -79.017143      218.88274      0.5          
    557000  -873.3838      -228.99804      217.5007       0.5          
    558000  -802.97986      2.4558461      218.31383      0.5          
    559000  -831.10844      166.51572      220.76004      0.5          
    560000  -851.90158      127.28809      217.54416      0.5          
    561000  -822.63822      7.2801661      223.27324      0.5          
    562000  -823.4266       95.33939       219.50162      0.5          
    563000  -787.63142      93.910945      220.02733      0.5          
    564000  -795.54497      44.882589      221.04064      0.5          
    565000  -740.15358     -168.26114      222.11569      0.5          
    566000  -740.16522      68.652751      221.3539       0.5          
    567000  -903.44904     -57.579746      216.64153      0.5          
    568000  -784.92332     -216.94329      218.29887      0.5          
    569000  -702.48839      40.929527      222.25179      0.5          
    570000  -660.24436      226.87567      220.56414      0.5          
    571000  -790.46432     -145.58075      219.12458      0.5          
    572000  -803.44921     -88.822721      217.77999      0.5          
    573000  -778.95703      35.792198      222.05858      0.5          
    574000  -746.02241     -90.656977      219.72903      0.5          
    575000  -754.65734     -11.128471      221.20582      0.5          
    576000  -764.26505      168.3479       220.08128      0.5          
    577000  -816.20351     -23.556612      219.94429      0.5          
    578000  -775.52737     -202.20508      224.01477      0.5          
    579000  -852.84582     -22.83175       218.29696      0.5          
    580000  -863.14987      116.89422      215.97445      0.5          
    581000  -792.60326     -36.459911      218.40562      0.5          
    582000  -797.19185      44.002533      219.03755      0.5          
    583000  -818.31844     -272.36303      219.38521      0.5          
    584000  -848.13575     -121.16386      219.98132      0.5          
    585000  -712.29138      168.33369      221.34902      0.5          
    586000  -847.70374     -63.16815       217.68263      0.5          
    587000  -791.57381      26.732519      220.4651       0.5          
    588000  -843.41273      58.176715      217.30127      0.5          
    589000  -729.90544      99.677434      221.88092      0.5          
    590000  -834.13036     -11.155377      218.07828      0.5          
    591000  -765.78094      209.55976      223.85471      0.5          
    592000  -746.82601     -164.07691      219.2915       0.5          
    593000  -696.92258     -108.74825      222.26268      0.5          
    594000  -867.44038      206.49048      219.49673      0.5          
    595000  -681.47735      0.45652926     222.25035      0.5          
    596000  -728.82667     -84.720047      220.44467      0.5          
    597000  -779.26154      227.70776      218.8051       0.5          
    598000  -821.76359      145.13773      218.43427      0.5          
    599000  -637.48785     -202.53878      226.40816      0.5          
    600000  -745.49916     -0.29429535     223.33114      0.5          
    601000  -816.23441      15.072219      218.39691      0.5          
    602000  -706.84507      154.95765      221.48883      0.5          
    603000  -867.09342     -68.673174      214.99108      0.5          
    604000  -785.25652     -4.7566744      219.74653      0.5          
    605000  -699.7851       121.86851      223.07665      0.5          
    606000  -676.40254      95.247064      222.2084       0.5          
    607000  -758.53968      13.601274      218.92074      0.5          
    608000  -874.49429      45.116601      218.98997      0.5          
    609000  -824.53734      29.906719      218.01819      0.5          
    610000  -816.03124     -86.188141      221.61448      0.5          
    611000  -833.12217      360.40781      219.51377      0.5          
    612000  -746.9636       131.3606       220.33413      0.5          
    613000  -861.39296     -231.71877      218.57665      0.5          
    614000  -855.0391       14.418812      220.11921      0.5          
    615000  -852.47229     -206.36518      220.7204       0.5          
    616000  -861.38668      62.625336      218.70641      0.5          
    617000  -893.36104      68.907829      218.07567      0.5          
    618000  -819.43708     -132.46047      220.64378      0.5          
    619000  -855.7284       85.654027      214.77811      0.5          
    620000  -811.63294      73.171022      220.548        0.5          
    621000  -788.31409     -65.828808      220.10419      0.5          
    622000  -742.47487     -4.023215       220.97987      0.5          
    623000  -830.75061      65.852746      219.30184      0.5          
    624000  -786.82892     -111.05437      220.1528       0.5          
    625000  -840.89647     -287.1954       219.21821      0.5          
    626000  -726.42088      63.008666      222.41844      0.5          
    627000  -784.48782      97.019703      218.73875      0.5          
    628000  -760.70243     -87.442295      217.84397      0.5          
    629000  -808.78652     -25.056985      217.47024      0.5          
    630000  -720.0211      -60.523691      221.50562      0.5          
    631000  -692.95957      122.58172      222.04412      0.5          
    632000  -811.36068     -205.19113      218.53098      0.5          
    633000  -774.67341      26.214068      220.54989      0.5          
    634000  -733.93022      27.309142      219.87014      0.5          
    635000  -749.81695      132.27895      220.06652      0.5          
    636000  -852.57003      130.34978      215.95836      0.5          
    637000  -695.41722     -62.569837      223.60316      0.5          
    638000  -754.36043     -179.92371      221.84406      0.5          
    639000  -759.89329     -198.71778      221.2049       0.5          
    640000  -789.66454      73.894447      218.57896      0.5          
    641000  -669.41125      222.50167      220.99974      0.5          
    642000  -640.30032      147.9751       222.1351       0.5          
    643000  -714.75824      129.60765      220.64881      0.5          
    644000  -740.9656      -18.777056      222.34493      0.5          
    645000  -687.6875      -144.14694      221.73068      0.5          
    646000  -744.60366     -19.405238      221.14384      0.5          
    647000  -713.40279     -6.8049926      221.32772      0.5          
    648000  -847.27594      137.41092      216.115        0.5          
    649000  -728.56168     -31.20468       221.6235       0.5          
    650000  -769.02173      190.06474      219.55901      0.5          
    651000  -855.38213      124.65095      219.98225      0.5          
    652000  -749.27537     -47.983737      219.72896      0.5          
    653000  -930.22274      42.078748      216.80276      0.5          
    654000  -830.99387     -132.95148      218.56812      0.5          
    655000  -835.59753      38.477249      217.95186      0.5          
    656000  -776.96779      175.27471      218.88067      0.5          
    657000  -868.0889       90.695996      217.64253      0.5          
    658000  -859.14418     -115.02594      219.78222      0.5          
    659000  -910.97634     -103.92156      221.81898      0.5          
    660000  -931.82801     -72.122658      218.75622      0.5          
    661000  -742.54309      105.06133      222.15618      0.5          
    662000  -860.74454      185.16736      218.76971      0.5          
    663000  -885.79508      108.21997      220.83935      0.5          
    664000  -872.3301      -103.57099      220.18162      0.5          
    665000  -813.04662     -45.033812      221.087        0.5          
    666000  -856.67114      102.2253       217.41686      0.5          
    667000  -709.0067      -53.317227      223.8394       0.5          
    668000  -791.93267      207.70944      220.01392      0.5          
    669000  -787.86649     -29.126209      218.67965      0.5          
    670000  -716.80834     -360.3587       220.69277      0.5          
    671000  -697.41771     -250.36496      217.08643      0.5          
    672000  -722.87396      172.54267      222.36996      0.5          
    673000  -762.86534      36.550848      219.88876      0.5          
    674000  -653.47334      152.45556      222.93068      0.5          
    675000  -753.29981     -107.14456      216.28749      0.5          
    676000  -785.13707     -176.11215      217.86386      0.5          
    677000  -770.83248     -172.1546       215.64695      0.5          
    678000  -651.35945      173.35739      221.67982      0.5          
    679000  -745.83346     -87.322939      219.65179      0.5          
    680000  -696.70067     -218.9514       221.71988      0.5          
    681000  -711.49582     -80.258643      217.48495      0.5          
    682000  -653.49333     -40.954142      219.01276      0.5          
    683000  -763.7803       39.843378      216.18241      0.5          
    684000  -844.81787      37.38085       216.81172      0.5          
    685000  -691.65354     -128.6134       221.60545      0.5          
    686000  -820.64379      52.4308        218.84006      0.5          
    687000  -752.07534     -39.834706      218.10336      0.5          
    688000  -822.74905      187.36277      217.12361      0.5          
    689000  -672.89051     -157.60713      220.18266      0.5          
    690000  -657.02895      24.175806      222.09966      0.5          
    691000  -714.60677      135.74012      220.66319      0.5          
    692000  -914.21475      141.32339      214.70662      0.5          
    693000  -727.15987     -120.27924      220.22557      0.5          
    694000  -803.05387     -197.50318      220.89297      0.5          
    695000  -861.23238      41.943486      218.23455      0.5          
    696000  -690.59224      54.931266      224.01135      0.5          
    697000  -782.49702      219.83728      221.21437      0.5          
    698000  -884.13414     -94.634945      221.21601      0.5          
    699000  -819.95477     -289.3356       222.40874      0.5          
    700000  -932.22235      69.617618      217.96445      0.5          
    701000  -801.49155      207.63599      220.77928      0.5          
    702000  -849.62037     -56.323872      221.8822       0.5          
    703000  -870.08595     -85.544014      218.06775      0.5          
    704000  -793.2135       416.98991      223.64727      0.5          
    705000  -931.14426     -108.25257      217.7804       0.5          
    706000  -820.43491     -213.6727       222.43713      0.5          
    707000  -873.06334     -46.290661      216.00862      0.5          
    708000  -823.28106      136.72752      218.64372      0.5          
    709000  -791.16509      35.280504      220.47509      0.5          
    710000  -768.76815     -332.1301       220.12629      0.5          
    711000  -742.89789      173.026        225.51663      0.5          
    712000  -734.58634     -38.855135      222.63193      0.5          
    713000  -770.69239     -26.06783       216.3716       0.5          
    714000  -683.58506      108.67165      220.47302      0.5          
    715000  -770.74514     -156.74161      218.35172      0.5          
    716000  -773.19108     -24.538388      219.31377      0.5          
    717000  -701.91324      101.6034       219.36008      0.5          
    718000  -792.28953     -140.75093      217.95517      0.5          
    719000  -800.79946     -116.66353      217.22192      0.5          
    720000  -781.52745      196.74939      216.23391      0.5          
    721000  -679.39151      382.99113      216.76199      0.5          
    722000  -648.79404     -155.50213      221.93804      0.5          
    723000  -637.03015     -81.489634      220.95882      0.5          
    724000  -612.80258      378.11086      220.98335      0.5          
    725000  -721.82058     -20.657325      217.56523      0.5          
    726000  -746.64536     -271.64741      218.21801      0.5          
    727000  -809.72733      41.593173      216.59845      0.5          
    728000  -793.61758     -502.49757      218.88383      0.5          
    729000  -621.15177      175.45464      220.42929      0.5          
    730000  -700.14291      132.60839      221.18229      0.5          
    731000  -739.37171     -302.33809      224.57629      0.5          
    732000  -908.53348      135.47458      216.40131      0.5          
    733000  -704.73197      67.917289      220.09782      0.5          
    734000  -673.9869       90.29436       224.70418      0.5          
    735000  -727.17334      44.638876      223.03346      0.5          
    736000  -736.51313      202.03154      222.09997      0.5          
    737000  -749.9999       154.05634      221.25915      0.5          
    738000  -807.53767     -249.676        219.186        0.5          
    739000  -831.11239     -60.562399      223.67194      0.5          
    740000  -802.09446      114.49023      220.32165      0.5          
    741000  -907.84449      216.29364      217.60503      0.5          
    742000  -721.4589       168.66016      223.77421      0.5          
    743000  -784.48073      156.56585      220.82992      0.5          
    744000  -873.23611     -10.218433      218.62346      0.5          
    745000  -788.05743     -542.48637      219.94232      0.5          
    746000  -620.60112      62.428991      223.94538      0.5          
    747000  -737.91252      426.62956      218.82203      0.5          
    748000  -795.29651      11.657141      221.41329      0.5          
    749000  -796.55804     -5.3242457      221.01646      0.5          
    750000  -730.73546      347.7051       221.32485      0.5          
    751000  -756.51222     -2.4767992      217.68151      0.5          
    752000  -620.9695       13.149286      224.10906      0.5          
    753000  -788.05522      103.19175      219.60798      0.5          
    754000  -902.67023     -3.8184304      218.50073      0.5          
    755000  -754.75548     -54.68144       219.53586      0.5          
    756000  -895.81819      188.57953      216.53966      0.5          
    757000  -822.43111      4.0641855      217.93513      0.5          
    758000  -825.41759     -123.25212      219.8938       0.5          
    759000  -627.2226       253.32238      224.32675      0.5          
    760000  -705.4954      -29.663901      220.78075      0.5          
    761000  -698.71872      25.30329       221.28457      0.5          
    762000  -588.13991      211.97416      224.47723      0.5          
    763000  -684.75974      247.3148       219.61139      0.5          
    764000  -664.07607     -137.45189      220.24671      0.5          
    765000  -747.22197     -167.9163       222.28737      0.5          
    766000  -817.18535     -29.897051      217.91561      0.5          
    767000  -787.60554     -139.95267      219.81241      0.5          
    768000  -747.35495     -159.39045      218.91507      0.5          
    769000  -724.55288     -99.592223      220.10246      0.5          
    770000  -844.77331      116.8276       217.23314      0.5          
    771000  -754.72098     -244.27013      221.29157      0.5          
    772000  -810.30606      6.5295371      218.02899      0.5          
    773000  -725.13318     -151.72166      220.24388      0.5          
    774000  -823.87904     -131.92948      216.53949      0.5          
    775000  -740.87139      196.13975      219.99667      0.5          
    776000  -792.869       -26.88307       220.88507      0.5          
    777000  -778.78352     -185.39513      222.42755      0.5          
    778000  -841.13542      69.766793      218.26051      0.5          
    779000  -785.64326      238.47527      219.10311      0.5          
    780000  -841.18731     -23.178304      220.12253      0.5          
    781000  -781.73232      183.88713      220.78544      0.5          
    782000  -911.20328     -150.06931      217.22432      0.5          
    783000  -802.83438     -229.99869      219.36351      0.5          
    784000  -889.13246      231.05443      221.21151      0.5          
    785000  -866.3406       33.161756      218.03905      0.5          
    786000  -751.88855     -150.24157      221.67466      0.5          
    787000  -858.99478     -27.726431      218.63012      0.5          
    788000  -779.91231     -139.30621      220.74077      0.5          
    789000  -766.12473      223.54437      223.00775      0.5          
    790000  -804.35275      84.310827      217.01001      0.5          
    791000  -753.90665     -26.021737      218.9296       0.5          
    792000  -707.22257      161.71736      220.01472      0.5          
    793000  -643.46858     -172.65197      222.47354      0.5          
    794000  -610.60479     -338.32299      222.87526      0.5          
    795000  -632.84795      60.393634      219.22526      0.5          
    796000  -552.33476      147.03197      222.93396      0.5          
    797000  -653.01467      100.44024      221.07185      0.5          
    798000  -575.39692      312.59034      219.4214       0.5          
    799000  -687.56507     -220.68146      217.31018      0.5          
    800000  -561.64083     -15.248525      219.24119      0.5          
    801000  -631.86863      32.987776      221.33875      0.5          
    802000  -558.56294      74.643401      222.10633      0.5          
    803000  -671.49545      56.05176       218.53534      0.5          
    804000  -704.00355     -198.58573      217.12657      0.5          
    805000  -702.42356     -301.58719      218.56632      0.5          
    806000  -713.96702      46.88875       216.19505      0.5          
    807000  -707.49004      41.699624      220.25001      0.5          
    808000  -634.06318     -5.4717016      222.44963      0.5          
    809000  -678.57024     -131.93737      221.17815      0.5          
    810000  -913.39805     -77.799902      216.6027       0.5          
    811000  -759.69549      156.3604       222.43321      0.5          
    812000  -762.2527      -145.31459      220.49523      0.5          
    813000  -789.86377     -211.53052      220.99908      0.5          
    814000  -864.86072      171.25744      219.94905      0.5          
    815000  -821.52514      337.18362      220.7249       0.5          
    816000  -838.10223      46.810606      217.9629       0.5          
    817000  -952.11619     -47.575402      218.56807      0.5          
    818000  -731.88703      74.316598      220.69063      0.5          
    819000  -874.83047     -98.40287       219.31857      0.5          
    820000  -823.0712      -31.80533       218.59036      0.5          
    821000  -846.04193     -41.072272      219.84324      0.5          
    822000  -747.11874      29.143989      221.48016      0.5          
    823000  -846.97968      169.68626      218.47125      0.5          
    824000  -842.54927     -148.23327      219.74907      0.5          
    825000  -859.19368     -252.07345      218.16514      0.5          
    826000  -606.64526      15.740068      223.13521      0.5          
    827000  -782.58068      85.076323      220.30257      0.5          
    828000  -791.65527      131.8823       217.0494       0.5          
    829000  -731.12587      181.18908      220.33241      0.5          
    830000  -787.2756      -86.059009      220.24837      0.5          
    831000  -725.75644     -248.92383      218.58255      0.5          
    832000  -715.92294      14.057885      219.98834      0.5          
    833000  -630.99942      50.435603      221.95656      0.5          
    834000  -603.43638      234.60018      221.33355      0.5          
    835000  -682.57944     -214.15975      219.73583      0.5          
    836000  -703.83012     -19.23877       218.12461      0.5          
    837000  -753.54196     -28.613897      213.6508       0.5          
    838000  -562.97811     -59.794597      223.22017      0.5          
    839000  -661.68483     -66.553742      218.68161      0.5          
    840000  -661.58252     -18.445886      217.70887      0.5          
    841000  -508.95666      42.387147      221.89554      0.5          
    842000  -651.7469      -261.16981      220.52022      0.5          
    843000  -642.7866      -45.213908      221.21036      0.5          
    844000  -572.21455     -13.389434      222.58999      0.5          
    845000  -615.52748      105.24955      219.72361      0.5          
    846000  -630.74844     -117.44372      220.27568      0.5          
    847000  -729.55401     -86.352773      218.10537      0.5          
    848000  -655.15623      219.29321      221.2065       0.5          
    849000  -698.27796     -40.356924      220.72899      0.5          
    850000  -747.99867     -187.51158      221.82204      0.5          
    851000  -626.68204     -249.19158      224.81757      0.5          
    852000  -588.74072     -20.415107      225.14225      0.5          
    853000  -686.03951      74.633099      217.70971      0.5          
    854000  -790.30146     -170.71339      217.97029      0.5          
    855000  -742.1501       13.000268      219.09694      0.5          
    856000  -828.3918       158.15084      219.8555       0.5          
    857000  -734.16321      104.90991      220.11102      0.5          
    858000  -680.69008      124.9379       221.5821       0.5          
    859000  -865.76325     -152.26883      216.02805      0.5          
    860000  -856.14198     -206.45067      215.57876      0.5          
    861000  -686.59145      235.4753       220.52989      0.5          
    862000  -756.50044      85.243308      217.56347      0.5          
    863000  -744.33153     -254.13012      221.87113      0.5          
    864000  -727.8808       18.05788       219.58924      0.5          
    865000  -738.04852      117.85101      220.38699      0.5          
    866000  -770.36127     -6.0955513      220.75716      0.5          
    867000  -621.7552       14.232397      221.55536      0.5          
    868000  -730.85638     -97.688637      220.7186       0.5          
    869000  -690.26369      64.500588      222.17141      0.5          
    870000  -594.62933     -81.214623      223.87329      0.5          
    871000  -610.92451     -253.0462       223.70854      0.5          
    872000  -645.92608      43.882846      221.96235      0.5          
    873000  -761.92934     -77.22465       216.98798      0.5          
    874000  -687.6475       53.513806      222.03917      0.5          
    875000  -713.05796      246.85328      220.71403      0.5          
    876000  -668.91739     -70.76759       217.46647      0.5          
    877000  -605.48917     -78.448565      223.57071      0.5          
    878000  -708.32489     -65.809444      217.23977      0.5          
    879000  -711.97293      297.04815      220.03355      0.5          
    880000  -733.73261      203.18499      219.01445      0.5          
    881000  -744.73461     -215.48128      217.40234      0.5          
    882000  -698.60578     -136.39714      219.92201      0.5          
    883000  -608.87896     -61.752613      221.04149      0.5          
    884000  -618.49331      71.665225      219.4432       0.5          
    885000  -658.58916     -42.317921      223.2702       0.5          
    886000  -681.57578     -136.44446      222.35431      0.5          
    887000  -700.18831      24.231065      221.24021      0.5          
    888000  -723.67872     -186.70992      219.2963       0.5          
    889000  -733.33371     -90.243956      220.18539      0.5          
    890000  -745.14956      172.5993       217.99644      0.5          
    891000  -727.82222     -32.397552      222.39898      0.5          
    892000  -849.44913     -379.08529      218.05158      0.5          
    893000  -814.4703       64.3844        217.65551      0.5          
    894000  -815.18536     -69.330188      218.34032      0.5          
    895000  -865.86101      56.456131      219.22556      0.5          
    896000  -873.33251     -57.626255      219.7804       0.5          
    897000  -689.23         5.4879287      224.24921      0.5          
    898000  -830.73284      109.40304      221.83211      0.5          
    899000  -834.31106      113.42903      220.33887      0.5          
    900000  -835.55548      154.73044      222.64275      0.5          
    901000  -873.44456     -152.22623      217.79316      0.5          
    902000  -846.95709      386.4237       219.85784      0.5          
    903000  -879.90881      169.91827      219.1673       0.5          
    904000  -868.03152      5.9369273      219.27061      0.5          
    905000  -737.10903      176.75242      222.02863      0.5          
    906000  -805.27346      141.54885      219.98598      0.5          
    907000  -710.97823     -128.85991      220.59456      0.5          
    908000  -748.19501      46.03203       220.646        0.5          
    909000  -748.3684      -70.749764      220.2051       0.5          
    910000  -662.11354      94.041873      220.9943       0.5          
    911000  -659.2759       65.618703      220.60714      0.5          
    912000  -736.07158     -239.48734      219.88374      0.5          
    913000  -596.18956      29.838381      222.17765      0.5          
    914000  -621.08575      41.66138       219.74394      0.5          
    915000  -637.39693     -71.936101      220.1831       0.5          
    916000  -662.16436     -97.58246       223.15791      0.5          
    917000  -695.98288     -111.14206      219.86755      0.5          
    918000  -699.56638     -75.645313      219.08417      0.5          
    919000  -598.94213      62.323196      219.99583      0.5          
    920000  -736.85164      13.707224      220.09055      0.5          
    921000  -675.2202      -59.000194      221.60166      0.5          
    922000  -594.77637     -111.87791      220.01939      0.5          
    923000  -740.76206      35.051066      220.46867      0.5          
    924000  -746.60771      35.44644       219.04605      0.5          
    925000  -729.76215      77.768247      218.30194      0.5          
    926000  -650.18        -166.31117      222.53418      0.5          
    927000  -743.30713     -306.29926      216.79874      0.5          
    928000  -626.27331      275.2038       223.59056      0.5          
    929000  -700.21815      169.95676      220.03732      0.5          
    930000  -869.82902      70.045938      217.75476      0.5          
    931000  -856.07558      239.06205      218.94034      0.5          
    932000  -843.29697      84.149702      220.48718      0.5          
    933000  -857.69958     -186.936        219.89523      0.5          
    934000  -891.0932       36.810647      221.21794      0.5          
    935000  -943.68252      28.429162      216.93263      0.5          
    936000  -913.20175      106.34548      219.18786      0.5          
    937000  -941.5679      -5.5700795      220.33326      0.5          
    938000  -861.22755     -48.064191      223.29154      0.5          
    939000  -903.00742      63.386109      217.88327      0.5          
    940000  -882.05451      68.698011      219.46524      0.5          
    941000  -963.21752     -99.059466      215.77118      0.5          
    942000  -883.53186     -106.79266      219.36872      0.5          
    943000  -858.60791     -116.72673      221.15681      0.5          
    944000  -803.83661      169.42679      218.85038      0.5          
    945000  -742.41922      275.83315      222.55308      0.5          
    946000  -671.48826     -48.609045      220.61511      0.5          
    947000  -757.61082     -179.55477      219.33721      0.5          
    948000  -751.22008     -212.85605      217.78018      0.5          
    949000  -623.87999      179.97508      220.55752      0.5          
    950000  -728.26173      136.25565      218.58954      0.5          
    951000  -626.9964      -149.53563      220.05096      0.5          
    952000  -561.3227       147.24026      220.87544      0.5          
    953000  -665.95359      93.343751      223.25501      0.5          
    954000  -762.38718      95.764916      218.52091      0.5          
    955000  -686.84591     -44.203665      222.6857       0.5          
    956000  -634.87843     -239.634        220.00318      0.5          
    957000  -662.4538      -300.8595       220.6591       0.5          
    958000  -681.95657      84.017257      221.32214      0.5          
    959000  -645.38223      303.45517      220.53668      0.5          
    960000  -660.3218      -127.06856      220.42632      0.5          
    961000  -694.75374     -14.440047      223.11391      0.5          
    962000  -765.43836      116.31241      217.69331      0.5          
    963000  -751.47561     -103.85209      220.12075      0.5          
    964000  -696.62977      25.809451      221.55735      0.5          
    965000  -747.29891     -388.91126      222.49848      0.5          
    966000  -810.39784      132.58879      216.70503      0.5          
    967000  -715.77111      222.86745      221.19008      0.5          
    968000  -698.73428     -308.45981      221.12036      0.5          
    969000  -729.03858      22.033055      221.1607       0.5          
    970000  -660.52611     -20.209462      220.96069      0.5          
    971000  -801.77373     -158.00793      219.59822      0.5          
    972000  -830.18511      52.918651      220.01658      0.5          
    973000  -827.09141      125.7385       220.38405      0.5          
    974000  -946.16186     -173.78345      214.80193      0.5          
    975000  -898.68534      53.625933      220.35074      0.5          
    976000  -720.70594      127.68416      221.68292      0.5          
    977000  -806.56651     -119.4857       219.967        0.5          
    978000  -789.50994     -80.295042      217.73976      0.5          
    979000  -790.58263     -46.604729      220.39215      0.5          
    980000  -825.67829     -37.092551      218.16678      0.5          
    981000  -742.98199      320.62359      221.50147      0.5          
    982000  -778.078        32.418792      218.47142      0.5          
    983000  -791.77614      27.02211       220.65419      0.5          
    984000  -796.02629     -169.50752      217.46083      0.5          
    985000  -781.86505      190.39906      223.48642      0.5          
    986000  -719.90705     -118.62001      220.33172      0.5          
    987000  -648.8829      -127.75799      220.20371      0.5          
    988000  -830.33028      207.0819       216.62928      0.5          
    989000  -852.24934      90.21906       221.50842      0.5          
    990000  -736.36497     -201.57246      220.5046       0.5          
    991000  -619.12727      13.24083       223.59614      0.5          
    992000  -696.41655     -266.91544      220.42737      0.5          
    993000  -759.03746     -277.88832      220.27726      0.5          
    994000  -661.20278      129.68641      221.62179      0.5          
    995000  -702.48284      112.27899      218.42436      0.5          
    996000  -718.06213     -206.09941      217.76715      0.5          
    997000  -800.24995      215.48058      216.96122      0.5          
    998000  -613.69624      264.10527      220.5385       0.5          
    999000  -630.49118     -111.98717      221.64773      0.5          
   1000000  -623.70864     -213.26921      220.64145      0.5          
   1001000  -718.75709      81.133512      220.15693      0.5          
   1002000  -740.99065     -204.78028      222.01644      0.5          
   1003000  -780.14437     -89.960413      219.36449      0.5          
   1004000  -740.12408      177.66841      219.53189      0.5          
   1005000  -717.96538     -15.544227      222.77812      0.5          
   1006000  -753.04339      4.0255085      222.92543      0.5          
   1007000  -683.33495     -75.053395      221.11172      0.5          
   1008000  -757.03012      83.865893      221.29126      0.5          
   1009000  -836.4286       158.93495      216.6312       0.5          
   1010000  -707.19136      45.505366      224.8689       0.5          
   1011000  -933.54449     -76.540575      215.14396      0.5          
   1012000  -826.72169      71.793564      220.79015      0.5          
   1013000  -766.02085     -56.967895      219.73502      0.5          
   1014000  -704.91484      51.834047      218.62485      0.5          
   1015000  -948.67033     -67.002129      215.80193      0.5          
   1016000  -645.00559      53.179794      225.0168       0.5          
   1017000  -790.26518     -50.434976      219.30789      0.5          
   1018000  -825.21345      27.480801      217.03361      0.5          
   1019000  -887.62004      227.979        218.15909      0.5          
   1020000  -702.20958     -108.33703      223.362        0.5          
   1021000  -779.46653     -227.61983      217.55321      0.5          
   1022000  -809.35632      120.80652      218.96479      0.5          
   1023000  -833.58312     -211.97411      214.58017      0.5          
   1024000  -758.27488     -54.696146      221.99311      0.5          
   1025000  -729.74142     -107.47206      220.1136       0.5          
   1026000  -846.73684     -127.81651      218.22966      0.5          
   1027000  -752.54502      57.119427      218.0538       0.5          
[...]
   3748000  -663.08919     -117.18939      217.72792      0.5          
   3749000  -663.07327      36.751973      219.18396      0.5          
   3750000  -662.96333     -104.4486       220.06492      0.5          
   3751000  -663.13949      171.06159      219.15264      0.5          
   3752000  -663.00116      48.530041      220.04546      0.5          
   3753000  -663.10732     -185.24357      215.70976      0.5          
   3754000  -662.92432      240.00065      218.18986      0.5          
   3755000  -662.891        207.12546      217.81357      0.5          
   3756000  -662.84558      36.454685      218.18232      0.5          
   3757000  -663.2308       31.781012      218.69545      0.5          
   3758000  -663.05859     -108.55338      221.50728      0.5          
   3759000  -662.95519     -7.0859499      218.258        0.5          
   3760000  -663.05854      7.1333999      220.13701      0.5          
   3761000  -662.87923     -91.201051      217.36335      0.5          
   3762000  -662.82221      80.816097      220.37711      0.5          
   3763000  -662.9309       80.683084      219.86631      0.5          
   3764000  -662.92048     -3.1977796      218.89443      0.5          
   3765000  -662.85224     -17.344021      217.63255      0.5          
   3766000  -663.00357     -37.812448      222.18598      0.5          
   3767000  -662.93248     -303.43699      218.76269      0.5          
   3768000  -662.63704      249.97571      220.23021      0.5          
   3769000  -662.67628      237.19975      221.5815       0.5          
   3770000  -662.59231     -209.37805      216.88759      0.5          
   3771000  -662.62866      177.57228      221.43123      0.5          
   3772000  -662.62618      55.841688      218.4409       0.5          
   3773000  -662.75125     -305.91121      218.99843      0.5          
   3774000  -662.79335      62.2004        219.11121      0.5          
   3775000  -662.55992      42.86164       219.14468      0.5          
   3776000  -662.84547      46.308208      218.65426      0.5          
   3777000  -662.90793      23.246944      221.94773      0.5          
   3778000  -662.89601     -65.624291      220.53263      0.5          
   3779000  -662.44985      293.31625      217.2748       0.5          
   3780000  -662.48355     -122.48797      216.23389      0.5          
   3781000  -662.66029     -33.612453      216.63921      0.5          
   3782000  -662.91079      194.24867      219.23186      0.5          
   3783000  -662.51817     -128.16787      220.88876      0.5          
   3784000  -662.0584       113.84431      217.42374      0.5          
   3785000  -662.14511     -163.92876      218.59972      0.5          
   3786000  -662.70909      8.0103921      220.23088      0.5          
   3787000  -662.51003     -103.66977      219.54798      0.5          
   3788000  -662.21585      125.28082      214.40396      0.5          
   3789000  -662.06439     -234.8136       216.87228      0.5          
   3790000  -662.13822     -153.89593      217.77126      0.5          
   3791000  -662.2828       1.2888314      217.65043      0.5          
   3792000  -662.18854     -225.02399      218.13405      0.5          
   3793000  -661.80673      4.4511229      213.97641      0.5          
   3794000  -662.02786      87.155859      217.46299      0.5          
   3795000  -662.04205     -92.838079      217.34586      0.5          
   3796000  -662.03567     -84.987445      217.73382      0.5          
   3797000  -661.77226      113.2293       217.04875      0.5          
   3798000  -662.07132     -0.78197969     220.41371      0.5          
   3799000  -662.52019      38.468726      218.94896      0.5          
   3800000  -662.42729     -115.68442      218.65331      0.5          
   3801000  -662.20946     -148.47362      219.53984      0.5          
   3802000  -662.10706      329.36102      219.53508      0.5          
   3803000  -662.4597      -126.16428      219.49128      0.5          
   3804000  -662.23008      78.937151      222.07059      0.5          
   3805000  -662.12207      469.18859      220.68125      0.5          
   3806000  -661.78659      122.80097      219.35525      0.5          
   3807000  -662.17872     -193.34696      220.13438      0.5          
   3808000  -662.11578     -31.315199      220.68349      0.5          
   3809000  -662.35949      114.88551      218.93715      0.5          
   3810000  -662.39716      43.491202      220.08725      0.5          
   3811000  -661.86765      93.016231      217.58027      0.5          
   3812000  -661.87718      170.74118      218.98191      0.5          
   3813000  -662.12502     -78.891729      219.66703      0.5          
   3814000  -662.16623      36.641363      220.83065      0.5          
   3815000  -662.07271     -35.990619      219.31302      0.5          
   3816000  -662.00955     -92.058649      220.21629      0.5          
   3817000  -661.93939     -168.96303      218.68347      0.5          
   3818000  -662.4387      -18.70858       219.6912       0.5          
   3819000  -662.48428      27.001492      219.65002      0.5          
   3820000  -662.29173      93.550411      219.42496      0.5          
   3821000  -662.11526     -89.241131      215.35426      0.5          
   3822000  -661.98353      73.134176      215.14232      0.5          
   3823000  -662.21536     -172.33776      217.65094      0.5          
   3824000  -662.398        37.58627       219.84007      0.5          
   3825000  -661.82243      114.11326      214.77355      0.5          
   3826000  -662.08549      54.878512      215.38651      0.5          
   3827000  -661.95388     -390.00288      215.09812      0.5          
   3828000  -661.9045       40.301379      218.2113       0.5          
   3829000  -661.82688     -147.59992      217.53511      0.5          
   3830000  -662.13926     -218.46878      215.71937      0.5          
   3831000  -661.61513     -38.634878      215.72621      0.5          
   3832000  -662.07853     -90.953343      217.04892      0.5          
   3833000  -661.84711      91.561282      215.70596      0.5          
   3834000  -662.00071     -58.784549      215.75672      0.5          
   3835000  -662.30442     -55.386885      216.48628      0.5          
   3836000  -662.05404     -75.695455      218.94295      0.5          
   3837000  -661.88792     -156.10646      218.13471      0.5          
   3838000  -661.91374     -11.552843      214.58418      0.5          
   3839000  -662.10115      81.254381      215.87102      0.5          
   3840000  -661.9209       109.78485      220.04831      0.5          
   3841000  -661.77729     -40.526681      218.55354      0.5          
   3842000  -661.90897     -120.92679      218.14563      0.5          
   3843000  -662.18424     -312.30958      219.55746      0.5          
   3844000  -662.03272      201.73734      218.98447      0.5          
   3845000  -661.80629      326.1918       218.50776      0.5          
   3846000  -661.78438     -343.80458      219.17588      0.5          
   3847000  -661.88214     -41.147383      217.39702      0.5          
   3848000  -662.14577     -44.791632      218.82668      0.5          
   3849000  -661.94885     -32.090795      218.08682      0.5          
   3850000  -661.72417      71.514475      218.02134      0.5          
   3851000  -661.45002     -268.74507      218.38614      0.5          
   3852000  -662.02049     -29.677242      217.72198      0.5          
   3853000  -661.9114       262.32734      217.88069      0.5          
   3854000  -661.4681      -210.40872      217.64019      0.5          
   3855000  -661.33621     -19.674928      219.71974      0.5          
   3856000  -661.39163      8.9221005      217.78615      0.5          
   3857000  -661.63283     -27.206161      218.27569      0.5          
   3858000  -661.23106     -94.040717      216.68147      0.5          
   3859000  -661.11244     -77.168802      218.24914      0.5          
   3860000  -661.18181      93.394707      218.64953      0.5          
   3861000  -661.76394      86.854315      215.80758      0.5          
   3862000  -661.47559     -105.11233      217.62834      0.5          
   3863000  -661.36537     -236.51036      215.38409      0.5          
   3864000  -661.39991     -203.91888      216.73114      0.5          
   3865000  -661.75279      133.08061      219.81683      0.5          
   3866000  -661.36522      17.289359      217.38991      0.5          
   3867000  -661.11074     -188.62481      218.29845      0.5          
   3868000  -661.09637     -82.851179      218.03294      0.5          
   3869000  -661.16738     -88.11122       216.85784      0.5          
   3870000  -661.35361      124.70619      216.13236      0.5          
   3871000  -661.31935      326.45572      218.87302      0.5          
   3872000  -660.95632      149.57634      215.08927      0.5          
   3873000  -661.14523     -83.105331      218.68086      0.5          
   3874000  -661.41077     -190.67656      218.42258      0.5          
   3875000  -661.55284     -101.75974      219.86702      0.5          
   3876000  -661.25965      152.30104      218.49609      0.5          
   3877000  -661.25965     -165.4263       217.62087      0.5          
   3878000  -661.48825      61.441345      219.31974      0.5          
   3879000  -661.64764      44.274644      218.08439      0.5          
   3880000  -661.42612     -144.31061      218.63682      0.5          
   3881000  -661.13206     -235.57958      216.44503      0.5          
   3882000  -661.50014      2.8970782      219.45637      0.5          
   3883000  -661.45915      53.65016       220.12445      0.5          
   3884000  -661.59608      70.59668       219.44796      0.5          
   3885000  -661.60634     -111.95787      220.70724      0.5          
   3886000  -661.2327      -235.94733      218.59228      0.5          
   3887000  -661.1455       281.7398       217.97543      0.5          
   3888000  -661.28326      4.4893125      219.35965      0.5          
   3889000  -661.08451     -337.62772      218.52944      0.5          
   3890000  -661.28955      64.942113      220.29228      0.5          
   3891000  -661.05609      94.861328      217.5032       0.5          
   3892000  -661.05571     -42.568081      218.63621      0.5          
   3893000  -661.14661      21.363303      218.20785      0.5          
   3894000  -661.16855      11.243122      218.20706      0.5          
   3895000  -660.86212     -307.19155      219.43163      0.5          
   3896000  -660.76432      1.2089283      217.27317      0.5          
   3897000  -660.98531      444.04402      218.49942      0.5          
   3898000  -661.06864     -112.39733      219.1711       0.5          
   3899000  -661.107       -172.7264       220.93405      0.5          
   3900000  -660.53656      71.967108      215.13422      0.5          
   3901000  -660.66355      8.403348       216.81999      0.5          
   3902000  -660.85436     -31.185479      221.05067      0.5          
   3903000  -660.68767      104.31065      219.76201      0.5          
   3904000  -660.38334      47.826417      218.83553      0.5          
   3905000  -660.43191     -57.58166       217.5638       0.5          
   3906000  -660.51782     -192.05032      220.0488       0.5          
   3907000  -660.58256      41.017739      219.31762      0.5          
   3908000  -660.5145       235.11562      219.50611      0.5          
   3909000  -660.54759     -84.605895      219.66767      0.5          
   3910000  -660.31697      92.740056      217.74147      0.5          
   3911000  -660.08282      33.041944      216.43341      0.5          
   3912000  -660.41148     -166.75331      219.55151      0.5          
   3913000  -660.33176     -19.777312      219.33186      0.5          
   3914000  -660.3967      -272.48264      219.17862      0.5          
   3915000  -660.15606     -235.13316      216.89381      0.5          
   3916000  -660.09646      28.321297      218.57304      0.5          
   3917000  -660.23497      285.24015      219.16944      0.5          
   3918000  -660.16302      242.57561      218.57961      0.5          
   3919000  -660.12724     -12.997807      218.75973      0.5          
   3920000  -660.02789     -36.442738      218.69682      0.5          
   3921000  -660.03465      73.847302      220.43548      0.5          
   3922000  -660.56436     -52.141504      220.62883      0.5          
   3923000  -660.23922      9.2300747      219.93975      0.5          
   3924000  -660.37378      193.41595      220.72101      0.5          
   3925000  -660.40258      34.43516       220.7639       0.5          
   3926000  -660.42722     -264.6858       220.84732      0.5          
   3927000  -659.98976      78.721076      220.30982      0.5          
   3928000  -660.1828       149.72672      216.78754      0.5          
   3929000  -660.17925     -3.9446129      220.51829      0.5          
   3930000  -660.14625      75.034585      217.4102       0.5          
   3931000  -660.30575      212.19078      217.96645      0.5          
   3932000  -660.52046     -17.055046      218.70855      0.5          
   3933000  -660.31574      172.73675      219.05243      0.5          
   3934000  -660.30281      66.276171      220.53646      0.5          
   3935000  -660.25762     -254.88593      216.84371      0.5          
   3936000  -660.52651      134.87823      217.5991       0.5          
   3937000  -660.47453     -13.505078      218.2488       0.5          
   3938000  -660.42534     -313.50965      216.11906      0.5          
   3939000  -660.35112      5.4617247      216.54126      0.5          
   3940000  -660.61923      13.276879      217.289        0.5          
   3941000  -660.57927     -69.438444      219.25613      0.5          
   3942000  -660.55163     -162.25602      217.78944      0.5          
   3943000  -660.39861      320.30347      217.76351      0.5          
   3944000  -660.31453      144.79264      214.96749      0.5          
   3945000  -660.29519      86.066759      219.58677      0.5          
   3946000  -660.54582      32.236717      221.30519      0.5          
   3947000  -660.43979     -188.89485      217.03085      0.5          
   3948000  -660.53833      239.90562      220.37021      0.5          
   3949000  -660.31106      54.862798      220.01399      0.5          
   3950000  -660.22246     -204.82763      218.91831      0.5          
   3951000  -660.37219     -4.2220222      216.86551      0.5          
   3952000  -660.28229     -17.13461       219.55206      0.5          
   3953000  -660.40765     -199.9543       218.25988      0.5          
   3954000  -660.18218      66.452074      218.34952      0.5          
   3955000  -659.94227     -8.6135023      218.30603      0.5          
   3956000  -659.83903     -273.64019      220.70881      0.5          
   3957000  -660.12703     -41.577035      221.68289      0.5          
   3958000  -659.92938      168.87336      219.551        0.5          
   3959000  -659.74506     -105.54151      220.61932      0.5          
   3960000  -659.66049      99.241166      220.02978      0.5          
   3961000  -660.0239      -43.275404      220.47475      0.5          
   3962000  -659.81654     -119.73102      220.96297      0.5          
   3963000  -659.79826      234.10826      220.38746      0.5          
   3964000  -659.69825      37.310888      217.44824      0.5          
   3965000  -659.78144     -159.03856      220.70345      0.5          
   3966000  -660.22748     -37.036892      220.02953      0.5          
   3967000  -659.88714     -110.11521      220.52863      0.5          
   3968000  -659.9339       170.51456      220.48624      0.5          
   3969000  -659.7465       98.771446      218.32237      0.5          
   3970000  -659.67599      70.772102      220.31427      0.5          
   3971000  -659.6571      -113.12793      216.47989      0.5          
   3972000  -659.47653      123.33448      218.6426       0.5          
   3973000  -659.65777      30.125123      222.68515      0.5          
   3974000  -659.67388     -160.41321      218.07651      0.5          
   3975000  -659.80311      0.34926684     218.83643      0.5          
   3976000  -659.69404     -75.72798       217.2347       0.5          
   3977000  -659.87526      154.9061       222.29439      0.5          
   3978000  -659.69617     -10.751682      219.74536      0.5          
   3979000  -659.24002     -82.466693      216.65902      0.5          
   3980000  -659.5516       18.549618      219.57351      0.5          
   3981000  -659.83658     -67.558482      219.59369      0.5          
   3982000  -659.98771      330.31528      220.19695      0.5          
   3983000  -659.78735     -13.098248      217.65458      0.5          
   3984000  -659.5452      -166.89159      220.83064      0.5          
   3985000  -659.67157      321.90253      220.63042      0.5          
   3986000  -660.02376      134.95059      219.8972       0.5          
   3987000  -659.94334      112.4016       220.04247      0.5          
   3988000  -659.79936     -127.85004      219.46114      0.5          
   3989000  -659.8046      -72.223017      221.32529      0.5          
   3990000  -660.15319     -167.92518      222.17994      0.5          
   3991000  -659.86598     -262.73387      217.58278      0.5          
   3992000  -659.81573      3.5072644      217.62865      0.5          
   3993000  -659.92008      99.407651      220.42332      0.5          
   3994000  -659.87499     -11.318073      218.02658      0.5          
   3995000  -659.83194      52.274624      217.73433      0.5          
   3996000  -659.72733     -242.74829      215.85188      0.5          
   3997000  -659.75315     -194.73111      218.4649       0.5          
   3998000  -659.91348      63.168406      219.1298       0.5          
   3999000  -659.73518     -32.636899      218.34646      0.5          
   4000000  -659.49581     -68.791963      216.66156      0.5          
Loop time of 4463.12 on 32 procs for 2000000 steps with 7050 atoms

Performance: 19.359 ns/day, 1.240 hours/ns, 448.117 timesteps/s, 3.159 Matom-step/s
99.2% CPU use with 32 MPI tasks x 1 OpenMP threads

MPI task timing breakdown:
Section |  min time  |  avg time  |  max time  |%varavg| %total
---------------------------------------------------------------
Pair    | 1321.1     | 2460.9     | 3172.3     |1094.7 | 55.14
Bond    | 12.4       | 14.129     | 16.199     |  21.7 |  0.32
Kspace  | 820.63     | 1574.1     | 2773       |1452.1 | 35.27
Neigh   | 27.867     | 28.004     | 28.341     |   2.4 |  0.63
Comm    | 228.3      | 295.38     | 357.13     | 238.1 |  6.62
Output  | 0.07716    | 0.10322    | 0.72318    |  34.7 |  0.00
Modify  | 55.614     | 81.807     | 112.7      | 198.4 |  1.83
Other   |            | 8.731      |            |       |  0.20

Nlocal:        220.312 ave         294 max         168 min
Histogram: 2 3 5 7 6 5 0 0 2 2
Nghost:        5186.62 ave        6063 max        3350 min
Histogram: 4 0 4 0 0 3 1 2 2 16
Neighs:        94628.5 ave      117665 max       59974 min
Histogram: 2 1 3 1 3 2 5 8 5 2

Total # of neighbors = 3028111
Ave neighs/atom = 429.51929
Ave special neighs/atom = 2
Neighbor list builds = 8280
Dangerous builds = 0
System init for write_data ...
PPPM initialization ...
  using 12-bit tables for long-range coulomb (src/kspace.cpp:342)
  G vector (1/distance) = 0.20169663
  grid = 24 24 80
  stencil order = 5
  estimated absolute RMS force accuracy = 0.00286774
  estimated relative force accuracy = 8.6361139e-06
  using single precision FFTW3
  3d grid and FFT values/proc = 12996 4320
Generated 1 of 1 mixed pair_coeff terms from arithmetic mixing rule
Last active /omp style is kspace_style pppm/omp
