ITEM: TIMESTEP
0
ITEM: NUMBER OF NODES
256
ITEM: BOX BOUNDS
0 40
0 40
0 240
ITEM: NODES
1 1 0 0 0
2 1 18.75 0 0
3 1 18.75 18.75 0
4 1 0 18.75 0
5 1 0 0 85.3125
6 1 18.75 0 85.3125
7 1 18.75 18.75 85.3125
8 1 0 18.75 85.3125
9 1 0 0 85.3125
10 1 18.75 0 85.3125
11 1 18.75 18.75 85.3125
12 1 0 18.75 85.3125
13 1 0 0 96.5625
14 1 18.75 0 96.5625
15 1 18.75 18.75 96.5625
16 1 0 18.75 96.5625
17 1 0 0 96.5625
18 1 18.75 0 96.5625
19 1 18.75 18.75 96.5625
20 1 0 18.75 96.5625
21 1 0 0 108.281
22 1 18.75 0 108.281
23 1 18.75 18.75 108.281
24 1 0 18.75 108.281
25 1 0 0 108.281
26 1 18.75 0 108.281
27 1 18.75 18.75 108.281
28 1 0 18.75 108.281
29 1 0 0 119.531
30 1 18.75 0 119.531
31 1 18.75 18.75 119.531
32 1 0 18.75 119.531
33 1 0 0 119.531
34 1 18.75 0 119.531
35 1 18.75 18.75 119.531
36 1 0 18.75 119.531
37 1 0 0 131.719
38 1 18.75 0 131.719
39 1 18.75 18.75 131.719
40 1 0 18.75 131.719
41 1 0 0 131.719
42 1 18.75 0 131.719
43 1 18.75 18.75 131.719
44 1 0 18.75 131.719
45 1 0 0 143.438
46 1 18.75 0 143.438
47 1 18.75 18.75 143.438
48 1 0 18.75 143.438
49 1 0 0 143.438
50 1 18.75 0 143.438
51 1 18.75 18.75 143.438
52 1 0 18.75 143.438
53 1 0 0 154.688
54 1 18.75 0 154.688
55 1 18.75 18.75 154.688
56 1 0 18.75 154.688
57 1 0 0 154.688
58 1 18.75 0 154.688
59 1 18.75 18.75 154.688
60 1 0 18.75 154.688
61 1 0 0 240
62 1 18.75 0 240
63 1 18.75 18.75 240
64 1 0 18.75 240
65 1 0 18.75 0
66 1 18.75 18.75 0
67 1 18.75 40 0
68 1 0 40 0
69 1 0 18.75 85.3125
70 1 18.75 18.75 85.3125
71 1 18.75 40 85.3125
72 1 0 40 85.3125
73 1 0 18.75 85.3125
74 1 18.75 18.75 85.3125
75 1 18.75 40 85.3125
76 1 0 40 85.3125
77 1 0 18.75 96.5625
78 1 18.75 18.75 96.5625
79 1 18.75 40 96.5625
80 1 0 40 96.5625
81 1 0 18.75 96.5625
82 1 18.75 18.75 96.5625
83 1 18.75 40 96.5625
84 1 0 40 96.5625
85 1 0 18.75 108.281
86 1 18.75 18.75 108.281
87 1 18.75 40 108.281
88 1 0 40 108.281
89 1 0 18.75 108.281
90 1 18.75 18.75 108.281
91 1 18.75 40 108.281
92 1 0 40 108.281
93 1 0 18.75 119.531
94 1 18.75 18.75 119.531
95 1 18.75 40 119.531
96 1 0 40 119.531
97 1 0 18.75 119.531
98 1 18.75 18.75 119.531
99 1 18.75 40 119.531
100 1 0 40 119.531
101 1 0 18.75 131.719
102 1 18.75 18.75 131.719
103 1 18.75 40 131.719
104 1 0 40 131.719
105 1 0 18.75 131.719
106 1 18.75 18.75 131.719
107 1 18.75 40 131.719
108 1 0 40 131.719
109 1 0 18.75 143.438
110 1 18.75 18.75 143.438
111 1 18.75 40 143.438
112 1 0 40 143.438
113 1 0 18.75 143.438
114 1 18.75 18.75 143.438
115 1 18.75 40 143.438
116 1 0 40 143.438
117 1 0 18.75 154.688
118 1 18.75 18.75 154.688
119 1 18.75 40 154.688
120 1 0 40 154.688
121 1 0 18.75 154.688
122 1 18.75 18.75 154.688
123 1 18.75 40 154.688
124 1 0 40 154.688
125 1 0 18.75 240
126 1 18.75 18.75 240
127 1 18.75 40 240
128 1 0 40 240
129 1 18.75 0 0
130 1 40 0 0
131 1 40 18.75 0
132 1 18.75 18.75 0
133 1 18.75 0 85.3125
134 1 40 0 85.3125
135 1 40 18.75 85.3125
136 1 18.75 18.75 85.3125
137 1 18.75 0 85.3125
138 1 40 0 85.3125
139 1 40 18.75 85.3125
140 1 18.75 18.75 85.3125
141 1 18.75 0 96.5625
142 1 40 0 96.5625
143 1 40 18.75 96.5625
144 1 18.75 18.75 96.5625
145 1 18.75 0 96.5625
146 1 40 0 96.5625
147 1 40 18.75 96.5625
148 1 18.75 18.75 96.5625
149 1 18.75 0 108.281
150 1 40 0 108.281
151 1 40 18.75 108.281
152 1 18.75 18.75 108.281
153 1 18.75 0 108.281
154 1 40 0 108.281
155 1 40 18.75 108.281
156 1 18.75 18.75 108.281
157 1 18.75 0 119.531
158 1 40 0 119.531
159 1 40 18.75 119.531
160 1 18.75 18.75 119.531
161 1 18.75 0 119.531
162 1 40 0 119.531
163 1 40 18.75 119.531
164 1 18.75 18.75 119.531
165 1 18.75 0 131.719
166 1 40 0 131.719
167 1 40 18.75 131.719
168 1 18.75 18.75 131.719
169 1 18.75 0 131.719
170 1 40 0 131.719
171 1 40 18.75 131.719
172 1 18.75 18.75 131.719
173 1 18.75 0 143.438
174 1 40 0 143.438
175 1 40 18.75 143.438
176 1 18.75 18.75 143.438
177 1 18.75 0 143.438
178 1 40 0 143.438
179 1 40 18.75 143.438
180 1 18.75 18.75 143.438
181 1 18.75 0 154.688
182 1 40 0 154.688
183 1 40 18.75 154.688
184 1 18.75 18.75 154.688
185 1 18.75 0 154.688
186 1 40 0 154.688
187 1 40 18.75 154.688
188 1 18.75 18.75 154.688
189 1 18.75 0 240
190 1 40 0 240
191 1 40 18.75 240
192 1 18.75 18.75 240
193 1 18.75 18.75 0
194 1 40 18.75 0
195 1 40 40 0
196 1 18.75 40 0
197 1 18.75 18.75 85.3125
198 1 40 18.75 85.3125
199 1 40 40 85.3125
200 1 18.75 40 85.3125
201 1 18.75 18.75 85.3125
202 1 40 18.75 85.3125
203 1 40 40 85.3125
204 1 18.75 40 85.3125
205 1 18.75 18.75 96.5625
206 1 40 18.75 96.5625
207 1 40 40 96.5625
208 1 18.75 40 96.5625
209 1 18.75 18.75 96.5625
210 1 40 18.75 96.5625
211 1 40 40 96.5625
212 1 18.75 40 96.5625
213 1 18.75 18.75 108.281
214 1 40 18.75 108.281
215 1 40 40 108.281
216 1 18.75 40 108.281
217 1 18.75 18.75 108.281
218 1 40 18.75 108.281
219 1 40 40 108.281
220 1 18.75 40 108.281
221 1 18.75 18.75 119.531
222 1 40 18.75 119.531
223 1 40 40 119.531
224 1 18.75 40 119.531
225 1 18.75 18.75 119.531
226 1 40 18.75 119.531
227 1 40 40 119.531
228 1 18.75 40 119.531
229 1 18.75 18.75 131.719
230 1 40 18.75 131.719
231 1 40 40 131.719
232 1 18.75 40 131.719
233 1 18.75 18.75 131.719
234 1 40 18.75 131.719
235 1 40 40 131.719
236 1 18.75 40 131.719
237 1 18.75 18.75 143.438
238 1 40 18.75 143.438
239 1 40 40 143.438
240 1 18.75 40 143.438
241 1 18.75 18.75 143.438
242 1 40 18.75 143.438
243 1 40 40 143.438
244 1 18.75 40 143.438
245 1 18.75 18.75 154.688
246 1 40 18.75 154.688
247 1 40 40 154.688
248 1 18.75 40 154.688
249 1 18.75 18.75 154.688
250 1 40 18.75 154.688
251 1 40 40 154.688
252 1 18.75 40 154.688
253 1 18.75 18.75 240
254 1 40 18.75 240
255 1 40 40 240
256 1 18.75 40 240
ITEM: TIMESTEP
0
ITEM: NUMBER OF CUBES
32
ITEM: CUBES
1 1 1 2 3 4 5 6 7 8
2 1 9 10 11 12 13 14 15 16
3 1 17 18 19 20 21 22 23 24
4 1 25 26 27 28 29 30 31 32
5 1 33 34 35 36 37 38 39 40
6 1 41 42 43 44 45 46 47 48
7 1 49 50 51 52 53 54 55 56
8 1 57 58 59 60 61 62 63 64
9 1 65 66 67 68 69 70 71 72
10 1 73 74 75 76 77 78 79 80
11 1 81 82 83 84 85 86 87 88
12 1 89 90 91 92 93 94 95 96
13 1 97 98 99 100 101 102 103 104
14 1 105 106 107 108 109 110 111 112
15 1 113 114 115 116 117 118 119 120
16 1 121 122 123 124 125 126 127 128
17 1 129 130 131 132 133 134 135 136
18 1 137 138 139 140 141 142 143 144
19 1 145 146 147 148 149 150 151 152
20 1 153 154 155 156 157 158 159 160
21 1 161 162 163 164 165 166 167 168
22 1 169 170 171 172 173 174 175 176
23 1 177 178 179 180 181 182 183 184
24 1 185 186 187 188 189 190 191 192
25 1 193 194 195 196 197 198 199 200
26 1 201 202 203 204 205 206 207 208
27 1 209 210 211 212 213 214 215 216
28 1 217 218 219 220 221 222 223 224
29 1 225 226 227 228 229 230 231 232
30 1 233 234 235 236 237 238 239 240
31 1 241 242 243 244 245 246 247 248
32 1 249 250 251 252 253 254 255 256
