LAMMPS data file via write_data, version 29 Aug 2024, timestep = 0, units = real

7050 atoms
2 atom types
4700 bonds
1 bond types
2350 angles
1 angle types

0 40 xlo xhi
0 40 ylo yhi
0 240 zlo zhi

Masses

1 12.0107
2 15.9994

Pair Coeffs # lj/cut/coul/long/omp

1 0.0536545 2.8
2 0.156989 3.05

Bond Coeffs # harmonic/omp

1 1028.27 1.16

Angle Coeffs # harmonic/omp

1 55.96 180

Atoms # full

6900 2300 2 -0.35 13.173678245061573 17.58562278802345 9.323232828402952 0 0 0
6898 2300 1 0.7 12.425364555051592 16.744904472296533 9.603985041355038 0 0 0
6899 2300 2 -0.35 11.67707766798224 15.904431896818613 9.885535558722495 0 0 0
6914 2305 2 -0.35 17.815420304561616 6.434267563967894 32.62761630051418 0 0 0
6895 2299 1 0.7 16.172451632803508 8.815158646923216 31.786481769783602 0 0 0
6896 2299 2 -0.35 15.212931071994964 8.28265434726914 32.16344669339112 0 0 0
6897 2299 2 -0.35 17.12501894532002 9.357541011134545 31.406037810460532 0 0 0
6913 2305 1 0.7 18.39471236348984 5.490343160010483 32.97369367282228 0 0 0
6918 2306 2 -0.35 8.117742970283992 0.49894285281944895 45.49127617687557 0 0 0
6916 2306 1 0.7 7.756124698760632 0.9745656293259568 46.48620324814128 0 0 0
6901 2301 1 0.7 11.00032873189398 1.7090770902768462 44.851892934067855 0 0 0
6902 2301 2 -0.35 10.640217126240548 2.1854379767480685 45.84701562309723 0 0 0
6903 2301 2 -0.35 11.363562519534085 1.23505905149445 43.85756265233406 0 0 0
6911 2304 2 -0.35 1.2058403884705367 16.718099807655065 46.43624698460039 0 0 0
6917 2306 2 -0.35 7.391440931297051 1.4479062835227863 47.48032560457532 0 0 0
6910 2304 1 0.7 1.2186249311523791 16.451916530067777 47.56521275412511 0 0 0
6912 2304 2 -0.35 1.23138238366286 16.18539285317646 48.69409551784385 0 0 0
19 7 1 0.7 2.156202269039333 6.170851046218803 83.62898462094783 0 0 0
21 7 2 -0.35 2.8623792661753775 6.911119514171562 83.08013435832444 0 0 0
409 137 1 0.7 6.010191602065431 7.148783309461929 83.18643409009572 0 0 0
411 137 2 -0.35 6.083375153513538 6.432962510877016 82.27618531529761 0 0 0
61 21 1 0.7 4.520342239277268 3.5092077342226156 82.68734634128404 0 0 0
63 21 2 -0.35 4.360722930380361 4.173193598888859 83.62688233828737 0 0 0
62 21 2 -0.35 4.6804327417255065 2.844122123722819 81.75125323358667 0 0 0
363 121 2 -0.35 16.655876239655854 5.0261876960042695 83.36353361171436 0 0 0
362 121 2 -0.35 15.138940084411814 3.9350957534804007 81.9860237601402 0 0 0
361 121 1 0.7 15.895252082903003 4.480326363995746 82.6772739709635 0 0 0
345 115 2 -0.35 13.778716655784814 6.410647019536695 83.46017730254621 0 0 0
344 115 2 -0.35 11.466570363168685 6.62670778756647 83.4553738688954 0 0 0
343 115 1 0.7 12.621852609107663 6.508833955432966 83.45700212147892 0 0 0
293 98 2 -0.35 16.54378759870133 8.307184840008034 83.2187865699372 0 0 0
49 17 1 0.7 12.728535250474637 2.490414341940011 83.61116568185932 0 0 0
51 17 2 -0.35 12.936198605804043 1.3528425416726033 83.51492143900516 0 0 0
335 112 2 -0.35 8.333268879945223 15.94819297881058 83.37092213096358 0 0 0
334 112 1 0.7 8.257615066774042 14.8190950701731 83.62741379260883 0 0 0
311 104 2 -0.35 6.167956470293054 18.645424169466512 83.57637932971595 0 0 0
404 135 2 -0.35 9.461875502146583 11.850501782105924 81.62800533589588 0 0 0
403 135 1 0.7 10.11474457789341 11.78280176149936 82.58446894581083 0 0 0
405 135 2 -0.35 10.777143516082573 11.71727403589912 83.53630864017036 0 0 0
291 97 2 -0.35 11.151869808282136 14.730308744877474 82.84143932510806 0 0 0
289 97 1 0.7 11.413611926383362 15.603143703264054 83.5601693843938 0 0 0
281 94 2 -0.35 17.294587233073027 15.065129215408101 83.6452022591296 0 0 0
39 13 2 -0.35 13.191402748184371 18.425255931995995 82.05898389559003 0 0 0
6920 2307 2 -0.35 1.5104017924915614 8.591340801736997 85.29343992054314 0 0 0
6919 2307 1 0.7 2.524661458478149 9.154110154066245 85.33982470072255 0 0 0
20 7 2 -0.35 1.4556030651871683 5.426985693161161 84.17911659232777 0 0 0
279 93 2 -0.35 3.063017487823158 1.2791199930470143 84.48667811505669 0 0 0
410 137 2 -0.35 5.92884066219362 7.856821123162086 84.10275508201256 0 0 0
225 75 2 -0.35 7.161406402656958 2.986537833851454 84.33578930972861 0 0 0
223 75 1 0.7 6.4753946366840145 2.4667927847112927 85.11382902520336 0 0 0
163 55 1 0.7 8.325851912666987 9.336947335470281 85.26952963923775 0 0 0
102 34 2 -0.35 8.39529115149454 6.0672839222396835 84.61488602660654 0 0 0
100 34 1 0.7 9.198344441243487 5.320035993636125 84.9954463734685 0 0 0
332 111 2 -0.35 8.149649812268926 3.1671573685633434 87.47533385489099 0 0 0
32 11 2 -0.35 5.751538264125895 7.811422664486896 88.08912738810109 0 0 0
288 96 2 -0.35 3.9589796345052384 6.452008848902784 85.983998318392 0 0 0
287 96 2 -0.35 5.769474781136503 5.049639046808574 86.36880746193283 0 0 0
286 96 1 0.7 4.862512369038492 5.748307932619481 86.17780155080878 0 0 0
277 93 1 0.7 2.8982049977019626 0.94847781427515 85.58711006284877 0 0 0
224 75 2 -0.35 5.784112363008651 1.9469235304536117 85.88798046236514 0 0 0
195 65 2 -0.35 2.851052115193048 3.673196202536812 86.93223977494229 0 0 0
193 65 1 0.7 2.0608157442318347 3.4855803137460764 87.76248088474962 0 0 0
164 55 2 -0.35 8.074108967946344 9.065527400288481 86.37047605696536 0 0 0
111 37 2 -0.35 2.675290431491735 8.533148842370386 88.20672139276857 0 0 0
109 37 1 0.7 2.6476287522155015 7.399506846979209 88.45522023570813 0 0 0
278 93 2 -0.35 2.737255977326848 0.62932558757564 86.69236541005696 0 0 0
31 11 1 0.7 5.6402510076745545 8.964230032179758 87.99964999882889 0 0 0
333 111 2 -0.35 6.996482748251589 4.239619563845677 89.18131768778873 0 0 0
331 111 1 0.7 7.574847194382712 3.7063568165611684 88.32771543453049 0 0 0
194 65 2 -0.35 1.2673334214276952 3.293167159118864 88.5880859415759 0 0 0
125 42 2 -0.35 6.135637421074947 1.1709185316854718 88.9395054567048 0 0 0
110 37 2 -0.35 2.6299525417356993 6.265243919523894 88.69721699405756 0 0 0
124 42 1 0.7 5.854546720613946 0.26627844605825596 88.26796405730244 0 0 0
373 125 1 0.7 0.5425124811280052 5.135275294946147 90.840806619476 0 0 0
315 105 2 -0.35 0.733135154879866 2.3327695255091494 91.81929249370587 0 0 0
314 105 2 -0.35 0.6711467293957433 0.6264847653167823 90.24632157448892 0 0 0
313 105 1 0.7 0.7017689780822735 1.4785832061490853 91.03374685589128 0 0 0
207 69 2 -0.35 4.094333521963057 3.8106389706954507 89.81969530912986 0 0 0
206 69 2 -0.35 4.697669439620885 5.576950590325729 91.20126803291242 0 0 0
205 69 1 0.7 4.396815323924847 4.690207558222749 90.51428837666745 0 0 0
414 138 2 -0.35 7.181966071193842 6.7971235763016935 92.84403989181565 0 0 0
156 52 2 -0.35 8.245945563156907 2.0649141214908804 91.26629563349279 0 0 0
155 52 2 -0.35 6.2658137038035635 2.9930891098742696 92.044559970817 0 0 0
154 52 1 0.7 7.259785403461027 2.536176871109096 91.6579754816367 0 0 0
90 30 2 -0.35 3.6144610966169393 1.1294803951978538 91.16983611447449 0 0 0
74 25 2 -0.35 6.2228214070966255 9.161841806801254 90.83825310646459 0 0 0
200 67 2 -0.35 0.2746548356046643 8.219876346926478 90.08572463931168 0 0 0
88 30 1 0.7 4.516529056632346 0.428307057525728 91.37173742265016 0 0 0
375 125 2 -0.35 1.6094446470635329 5.208153682890423 91.2913445253072 0 0 0
129 43 2 -0.35 8.722627565773958 7.706212109020207 89.68027263056318 0 0 0
128 43 2 -0.35 8.750446213802263 6.361421063190062 87.78739387979364 0 0 0
127 43 1 0.7 8.733404479541797 7.0297848127074545 88.737062979805 0 0 0
116 39 2 -0.35 8.636870948404681 0.05631779952454934 86.9473529248496 0 0 0
269 90 2 -0.35 3.0640416364266856 8.214901588194012 91.28966373814251 0 0 0
268 90 1 0.7 3.7719201817754704 8.269148246219727 92.20838115077255 0 0 0
115 39 1 0.7 9.211297429080137 0.6280252509269656 86.11566250348284 0 0 0
199 67 1 0.7 0.5967215376109074 9.318907565817085 90.28062569083946 0 0 0
265 89 1 0.7 17.05625772003009 1.39757625354843 84.87921500185048 0 0 0
292 98 1 0.7 16.09074212676699 9.105563402354639 83.9281048635323 0 0 0
50 17 2 -0.35 12.52084545532485 3.6285199419316694 83.70190510989583 0 0 0
117 39 2 -0.35 9.769663955820175 1.1978477272315775 85.27342943432026 0 0 0
267 89 2 -0.35 16.32390710222864 2.0942521383314023 84.30867624681534 0 0 0
1887 629 2 -0.35 14.497419753083713 0.14707299455691625 85.97185440133556 0 1 0
266 89 2 -0.35 17.794594852020985 0.69510812236452 85.4358702955593 0 0 0
387 129 2 -0.35 14.776621706632442 4.617446192857891 86.11768591919721 0 0 0
386 129 2 -0.35 15.800492370484237 6.700286734576586 86.02640505927472 0 0 0
385 129 1 0.7 15.290048878483733 5.657983069967127 86.0673646936267 0 0 0
340 114 1 0.7 17.73207487705244 7.29731288433374 88.33254642840251 0 0 0
219 73 2 -0.35 12.529256423196808 6.76924075269729 86.39775497907945 0 0 0
217 73 1 0.7 12.066088533558332 7.135361614279285 87.3978516801729 0 0 0
43 15 1 0.7 15.278558106611733 2.4643378110235754 88.25198252631944 0 0 0
44 15 2 -0.35 16.18622877540885 2.0717635637871514 87.64619383724012 0 0 0
45 15 2 -0.35 14.374942331545624 2.858816745248848 88.86382172374883 0 0 0
122 41 2 -0.35 17.954097665819113 4.3172550216317545 86.18070323692811 0 0 0
101 34 2 -0.35 10.004631361585824 4.5797290598161515 85.38048789351413 0 0 0
95 32 2 -0.35 12.321669774159364 2.4843431292026086 86.62312654079608 0 0 0
94 32 1 0.7 11.970564956882201 3.367809185605683 87.28968061829124 0 0 0
54 18 2 -0.35 14.111503652730406 9.239994804085809 87.3712426503702 0 0 0
1937 646 2 -0.35 10.379373584280614 1.4559912777202082 89.0586770706985 0 1 0
3647 1216 2 -0.35 18.309723307779787 9.22364698994916 86.01541203796043 0 0 0
366 122 2 -0.35 14.62326502234268 5.225664323670387 91.28586348008372 0 0 0
365 122 2 -0.35 14.262233552110144 5.940803131801047 89.10570250450598 0 0 0
364 122 1 0.7 14.43879008215501 5.5835073930829315 90.19669878666444 0 0 0
341 114 2 -0.35 16.80183940508482 7.868161890966849 88.72819491150942 0 0 0
218 73 2 -0.35 11.585167241239647 7.5045436114388515 88.3873809976112 0 0 0
3644 1215 2 -0.35 17.18219289872202 4.435373290905813 89.63564466772829 0 0 0
96 32 2 -0.35 11.627897819953999 4.248520545827918 87.9645235920163 0 0 0
1960 654 1 0.7 16.470823368636434 0.2650667959098536 90.91371874442976 0 1 0
3643 1215 1 0.7 18.09581398658197 4.077949294072119 90.25690940104931 0 0 0
378 126 2 -0.35 14.569425383054632 2.2480894036212313 91.8997723197022 0 0 0
1961 654 2 -0.35 17.21378809359996 1.0538177156803727 90.49456548122511 0 1 0
1936 646 1 0.7 10.482871214879939 0.6583586350021747 89.89590373023754 0 1 0
376 126 1 0.7 13.791235774574167 2.5188599255223334 92.71803487656443 0 0 0
261 87 2 -0.35 11.494040549518658 9.02952493912302 91.34735043455304 0 0 0
260 87 2 -0.35 11.947186778534938 6.7533399739331585 91.26177698071106 0 0 0
259 87 1 0.7 11.715302702069916 7.890065406663279 91.30144473587356 0 0 0
252 84 2 -0.35 9.70381215010254 4.790743969412966 90.34929217462 0 0 0
251 84 2 -0.35 11.504497516903445 3.51752722865064 91.07295872665249 0 0 0
250 84 1 0.7 10.607416998067022 4.1603814082876855 90.71362521216041 0 0 0
209 70 2 -0.35 14.858588742022885 8.431380526646262 91.14936300597066 0 0 0
208 70 1 0.7 15.660762335982922 9.254102586854811 90.97920599506678 0 0 0
342 114 2 -0.35 18.65500176998758 6.71507377398303 87.93813319329712 0 0 0
165 55 2 -0.35 8.593376786701887 9.59215443857121 84.16868449567811 0 0 0
6921 2307 2 -0.35 3.5415586856230825 9.710896960931798 85.3851664788684 0 0 0
309 103 2 -0.35 5.658467152509074 15.36196474641861 84.92039058434158 0 0 0
308 103 2 -0.35 3.8570869614714764 16.669675437303486 84.2638752094213 0 0 0
307 103 1 0.7 4.75477552858586 16.012762367841685 84.5936844598786 0 0 0
114 38 2 -0.35 6.241580008725597 11.479015492698535 85.19458512615925 0 0 0
112 38 1 0.7 5.309562925250335 12.069284099262632 85.55446965156632 0 0 0
336 112 2 -0.35 8.199513890602669 13.688837226694416 83.88203555086889 0 0 0
103 35 1 0.7 9.25178511528706 18.663601075462235 84.21256252027096 0 0 0
152 51 2 -0.35 5.735612180209962 18.672399835294346 86.6925447105298 0 0 0
239 80 2 -0.35 9.26213077021016 13.814882170819223 89.2604429433025 0 0 0
140 47 2 -0.35 9.29186898705553 12.575913905406079 92.19680024561043 0 0 0
350 117 2 -0.35 8.664987990715142 18.19654671838903 88.38917064270971 0 0 0
153 51 2 -0.35 4.3523356393073716 18.29067609254519 88.51728311826726 0 0 0
3543 1181 2 -0.35 2.2570828980847257 18.424966472392533 86.18725846139712 1 0 0
348 116 2 -0.35 8.362872205949198 15.421598411662718 86.58460562391744 0 0 0
346 116 1 0.7 7.456232739820644 15.719928218293369 87.24471755070573 0 0 0
33 11 2 -0.35 5.509075941000049 10.112847501050592 87.90387198646161 0 0 0
246 82 2 -0.35 3.221012325899768 11.989044142279353 88.78411721459142 0 0 0
245 82 2 -0.35 1.579063440115733 11.31145132684519 87.29016784691704 0 0 0
244 82 1 0.7 2.4008955668831025 11.652366861089966 88.03539582230329 0 0 0
203 68 2 -0.35 9.232039872144352 12.104878983203715 86.46670688759843 0 0 0
3541 1181 1 0.7 1.5005154705928616 17.601425231764523 85.87295261644253 1 0 0
113 38 2 -0.35 4.3732388681167285 12.663594967257469 85.89997058091426 0 0 0
105 35 2 -0.35 8.906697244933188 18.38364597156677 85.28515590968104 0 0 0
99 33 2 -0.35 3.4374600552189234 15.59408562401427 87.30702668674587 0 0 0
347 116 2 -0.35 6.546281137714526 16.022562269074932 87.89882369260862 0 0 0
2022 674 2 -0.35 1.346118424064117 17.65667778899502 89.0734840432022 0 0 0
3528 1176 2 -0.35 0.8963736682836031 14.217152334299918 89.07516923811895 1 0 0
3542 1181 2 -0.35 0.7391547166404857 16.78397263198308 85.56078330944294 1 0 0
151 51 1 0.7 5.043581636408026 18.485603810384873 87.60570939384436 0 0 0
227 76 2 -0.35 8.488160802638939 10.686577432552175 89.216545915102 0 0 0
372 124 2 -0.35 3.6475081483046763 11.248714714765125 91.98300285040631 0 0 0
371 124 2 -0.35 2.2633572862481093 13.07970317251538 91.62907470031034 0 0 0
370 124 1 0.7 2.9569263983645975 12.164263451814932 91.80173369899607 0 0 0
167 56 2 -0.35 0.9790041431941353 16.07955043322199 91.79909636478928 0 0 0
243 81 2 -0.35 5.991533062175487 18.322219086266994 91.14050901321136 0 0 0
216 72 2 -0.35 6.133811164606656 12.285389270234061 90.3271387126978 0 0 0
215 72 2 -0.35 6.415206946392565 13.035603731544674 88.14791162307813 0 0 0
214 72 1 0.7 6.2744136844038865 12.649671692676506 89.23394619127617 0 0 0
98 33 2 -0.35 4.044404526760014 14.847994728254738 89.4204555205219 0 0 0
97 33 1 0.7 3.7353975998177265 15.218295406192421 88.36483379380232 0 0 0
201 67 2 -0.35 0.9313174958450019 10.416262029276217 90.45916799513452 0 0 0
192 64 2 -0.35 8.664287551511913 17.40202137858687 92.81772204224107 0 0 0
190 64 1 0.7 8.787773551847822 18.25831882454839 92.04410143607844 0 0 0
168 56 2 -0.35 3.1658275150464146 16.83032286634283 91.5971286904742 0 0 0
166 56 1 0.7 2.073681730238583 16.452032167848714 91.69807051691855 0 0 0
108 36 2 -0.35 6.694660724404426 15.173065676658299 91.18394051371628 0 0 0
107 36 2 -0.35 4.95831106730989 14.369746810234698 92.50120743996285 0 0 0
106 36 1 0.7 5.823608922913979 14.778503227173601 91.84345167890959 0 0 0
75 25 2 -0.35 7.954099041350002 9.784257330830213 92.2560638166523 0 0 0
73 25 1 0.7 7.091671230849407 9.473493843086699 91.5428711779292 0 0 0
135 45 2 -0.35 12.74184533444706 9.372029104649826 84.03828777523641 0 0 0
294 98 2 -0.35 15.652508138952719 9.920467750408985 84.62914063224234 0 0 0
133 45 1 0.7 11.979631489651357 9.429801633214694 84.91161391232544 0 0 0
282 94 2 -0.35 18.01883446478573 17.240709721668182 84.0048056455493 0 0 0
280 94 1 0.7 17.6526258072716 16.15431749007956 83.82584949975298 0 0 0
36 12 2 -0.35 17.84092299686443 12.181604763096232 84.92995014110815 0 0 0
204 68 2 -0.35 10.780068952305191 13.737412565067968 85.89488543316668 0 0 0
134 45 2 -0.35 11.208095365107564 9.465811313218142 85.77787719238115 0 0 0
5 2 2 -0.35 13.624728951756433 11.060645780616714 90.00116759626182 0 0 0
222 74 2 -0.35 14.831354192277654 17.013316996902866 84.54998407610718 0 0 0
358 120 1 0.7 14.7092415210465 14.357980552783019 88.66328191163583 0 0 0
174 58 2 -0.35 11.76179283106963 17.875228660553727 90.70786305221894 0 0 0
144 48 2 -0.35 18.66184806269193 15.106899528995992 89.35079794670978 0 0 0
142 48 1 0.7 18.240619465559245 15.08292570209707 90.43246588930654 0 0 0
173 58 2 -0.35 12.98283067801102 15.901577789747547 90.78576438137296 0 0 0
359 120 2 -0.35 13.833981805968678 13.67767166848029 88.31912543031895 0 0 0
228 76 2 -0.35 10.74335382632982 10.64321531323885 88.67155689481065 0 0 0
52 18 1 0.7 14.983797304833649 9.990904039371083 87.52326955770204 0 0 0
139 47 1 0.7 10.05321687702099 11.969307491663791 92.83004521963458 0 0 0
226 76 1 0.7 9.614454131010461 10.664173321047425 88.93885233612043 0 0 0
221 74 2 -0.35 13.930121292093506 16.324281609280074 86.57628930345564 0 0 0
53 18 2 -0.35 15.859254815025594 10.738046798303222 87.6779479201885 0 0 0
143 48 2 -0.35 17.812902629234298 15.067406795098833 91.51174236463076 0 0 0
202 68 1 0.7 10.003916844857674 12.923892526719234 86.18482538832214 0 0 0
303 101 2 -0.35 11.171558309839128 16.20512665806724 88.0633344501923 0 0 0
35 12 2 -0.35 16.292331038916604 13.419880192030465 86.1402370611984 0 0 0
360 120 2 -0.35 15.584707061307636 15.036215928536349 89.01086816868074 0 0 0
229 77 1 0.7 13.480024565757287 12.900362903439785 85.2109707268901 0 0 0
236 79 2 -0.35 16.889808401027786 17.18686934853031 86.91157031476338 0 0 0
159 53 2 -0.35 16.814354979311226 17.71805354524226 90.04369110036785 0 0 0
220 74 1 0.7 14.383265169609015 16.671487145062752 85.56514271778593 0 0 0
172 58 1 0.7 12.37308077488725 16.888952399517112 90.7537392688477 0 0 0
238 80 1 0.7 9.5948330721317 14.575100315589838 90.07260023041525 0 0 0
230 77 2 -0.35 13.631842986518452 13.890045058655495 84.62330818884077 0 0 0
158 53 2 -0.35 14.624173567251217 18.06137783200918 89.35292149633328 0 0 0
304 102 1 0.7 16.01227952670267 12.668687036362376 92.3477586987122 0 0 0
240 80 2 -0.35 9.923357204641158 15.34414538537224 90.87767703789984 0 0 0
4 2 1 0.7 12.803150104057535 11.80902000790069 90.33719422643492 0 0 0
306 102 2 -0.35 15.327196941884129 13.176164740041896 91.55967406073296 0 0 0
157 53 1 0.7 15.717632620209667 17.889801587299893 89.70332214159616 0 0 0
210 70 2 -0.35 16.460319721498962 10.080640675960861 90.81533011410903 0 0 0
272 91 2 -0.35 18.120885912675497 18.041332642802068 92.82983037211733 0 0 0
301 101 1 0.7 11.345722398319538 17.246734892735994 87.58174300152051 0 0 0
6 2 2 -0.35 11.98116866158 12.55370459011653 90.6801813157415 0 0 0
235 79 1 0.7 17.939763880336624 17.605817899565093 87.17395243125914 0 0 0
302 101 2 -0.35 11.514834392414468 18.297888696749336 87.11884761788768 0 0 0
290 97 2 -0.35 11.657634518668285 16.481268754899997 84.27901526027814 0 0 0
34 12 1 0.7 17.06962629559647 12.802038559851768 85.53811932395345 0 0 0
231 77 2 -0.35 13.32994411043125 11.905151338019056 85.78884758936378 0 0 0
396 132 2 -0.35 8.614999819578001 2.9826986157679967 100.46616656071046 0 0 0
394 132 1 0.7 7.777753112234068 2.813805257687092 99.67875931721984 0 0 0
338 113 2 -0.35 2.412181675811242 7.396530405182431 99.93013876371029 0 0 0
337 113 1 0.7 1.481139297310188 8.062760233450593 100.124252827355 0 0 0
324 108 2 -0.35 8.187094748872658 6.203189887297085 95.99645315783127 0 0 0
416 139 2 -0.35 2.0573197096666975 2.3911762403133285 97.56313644123419 0 0 0
120 40 2 -0.35 3.915309531219049 4.252483240035859 99.33320167917557 0 0 0
119 40 2 -0.35 3.4839005353635155 4.944863081876744 101.50541781087895 0 0 0
118 40 1 0.7 3.703859992931678 4.60332111715481 100.4180825209949 0 0 0
1118 373 2 -0.35 2.431031208036994 1.8159084398922294 101.57420248430951 0 0 0
1117 373 1 0.7 3.1614260841852153 0.9286492352601671 101.74190245282966 0 0 0
930 310 2 -0.35 6.523091974758792 5.290899471980407 100.88209383272398 0 0 0
929 310 2 -0.35 7.96623761056526 7.107727779145239 100.97185938424043 0 0 0
928 310 1 0.7 7.247971935362687 6.196852139698273 100.92477785790938 0 0 0
1074 358 2 -0.35 6.121532311954247 8.410047529268462 98.8232424085163 0 0 0
395 132 2 -0.35 6.9370390036668725 2.6531350553838595 98.89612974765767 0 0 0
1935 645 2 -0.35 4.275353367480015 1.0203038602700965 99.06579557725132 0 1 0
13 5 1 0.7 0.5219156562939534 0.515296321897201 99.18176148430128 0 0 0
3582 1194 2 -0.35 0.8503112729693975 4.251059293026966 99.81413739516151 1 0 0
3580 1194 1 0.7 0.29813618974615413 3.8544827805620887 100.75519016899078 1 0 0
1933 645 1 0.7 4.128933705453635 0.41227990005473275 98.08802219015497 0 1 0
322 108 1 0.7 8.184671324241018 5.881585759836703 97.11222358902687 0 0 0
415 139 1 0.7 2.164740613028225 3.469053612370794 97.14700789864152 0 0 0
323 108 2 -0.35 8.186838485979758 5.568277557472642 98.23032252666651 0 0 0
1072 358 1 0.7 6.286367136877732 9.261504615299478 99.59506047229675 0 0 0
262 88 1 0.7 4.377174739720493 6.716070786833751 96.93830659107174 0 0 0
417 139 2 -0.35 2.2519388325204495 4.545203685861501 96.7211263212143 0 0 0
339 113 2 -0.35 0.5532910910918788 8.72982077279337 100.33298621558345 0 0 0
11 4 2 -0.35 1.826725443979 1.2495283316606771 94.76533994976467 0 0 0
264 88 2 -0.35 3.596678239684947 7.55595522419827 96.75568178291596 0 0 0
263 88 2 -0.35 5.166807550041093 5.883394431659561 97.11311818149095 0 0 0
58 20 1 0.7 6.0676855536181735 2.9955632892479858 96.07708489591892 0 0 0
59 20 2 -0.35 4.959108819729001 2.696477145248743 96.25309685926382 0 0 0
60 20 2 -0.35 7.173149215586435 3.302066837030892 95.89697370606116 0 0 0
84 28 2 -0.35 9.303766023658127 9.034703777455027 95.04813479590342 0 0 0
296 99 2 -0.35 6.224323881956232 8.60760757655898 95.56197926746073 0 0 0
69 23 2 -0.35 0.10793269500436807 4.087548961689259 94.37826655269261 0 0 0
12 4 2 -0.35 3.9828024496975023 0.6597478264637592 94.139360015711 0 0 0
1119 373 2 -0.35 3.8853681567561185 0.03703744587427951 101.90845564049697 0 0 0
131 44 2 -0.35 2.6310824197760923 6.064645573468257 94.02889343396654 0 0 0
327 109 2 -0.35 8.999650560440307 4.195218839461042 93.4032992837652 0 0 0
2333 778 2 -0.35 7.014593697576886 0.3541600391071979 101.4926722181157 0 1 0
10 4 1 0.7 2.906628061491756 0.9627313822068617 94.45043614876161 0 0 0
413 138 2 -0.35 5.775330592824034 5.480274215419154 94.1385415735987 0 0 0
2141 714 2 -0.35 7.226564408229949 0.7313741886374439 94.09012969954777 0 1 0
132 44 2 -0.35 3.1791898681827773 3.83295715169287 93.6923501373186 0 0 0
130 44 1 0.7 2.903132127796709 4.948535893067766 93.85800795709457 0 0 0
412 138 1 0.7 6.4824298273203524 6.13558894719533 93.4918694022221 0 0 0
3701 1234 2 -0.35 0.1423230162439589 6.764223158261536 97.91208028329376 1 0 0
270 90 2 -0.35 4.485215697845156 8.316749188890437 93.12339447552175 0 0 0
379 127 1 0.7 11.307098860084752 8.110752211486309 97.05847428824254 0 0 0
380 127 2 -0.35 10.93704898929724 7.0149622986407705 96.97212172456865 0 0 0
175 59 1 0.7 11.30740685732275 1.6870200782369764 98.35654277054864 0 0 0
398 133 2 -0.35 18.070035279475224 9.121454595185188 97.64691541889984 0 0 0
22 8 1 0.7 17.163395976799258 7.115915735389284 99.50562676784853 0 0 0
23 8 2 -0.35 16.099168532326647 7.5799800109130535 99.50642018824873 0 0 0
24 8 2 -0.35 18.225769263903402 6.647644124110899 99.49795321944306 0 0 0
321 107 2 -0.35 14.15883854151524 7.205790168914211 97.17763012628212 0 0 0
183 61 2 -0.35 15.79405760992329 4.779729562852491 98.16061368472343 0 0 0
182 61 2 -0.35 14.003910961048824 4.834369812562039 99.63825259638467 0 0 0
181 61 1 0.7 14.893571327486255 4.797897393565334 98.89317765724675 0 0 0
258 86 2 -0.35 16.863142883231113 1.0326149382782979 96.31213548953704 0 0 0
48 16 2 -0.35 18.45178683807243 2.8525282786430317 98.55274296852379 0 0 0
138 46 2 -0.35 10.997306556327962 4.557052197643265 98.98973764483634 0 0 0
136 46 1 0.7 10.815232314005256 5.0511498266773955 100.02367659971553 0 0 0
79 27 1 0.7 15.147912586594776 0.7396502593601783 98.98268190357055 0 0 0
137 46 2 -0.35 10.624081028096104 5.540546874619813 101.05893961054153 0 0 0
81 27 2 -0.35 15.545165652916342 1.8080077514359092 99.20152214674901 0 0 0
1221 407 2 -0.35 13.748284141096105 8.43852222020283 101.45575940312915 0 0 0
1220 407 2 -0.35 12.315176145554132 7.699073065842469 99.78574512220631 0 0 0
1219 407 1 0.7 13.034536036054476 8.060196639846234 100.62197872685645 0 0 0
951 317 2 -0.35 16.845994853926122 4.333457451319092 101.24755870215034 0 0 0
950 317 2 -0.35 17.678121758233914 2.1844487791702885 101.53525105876811 0 0 0
949 317 1 0.7 17.254276584140317 3.255641427203118 101.39184829951114 0 0 0
801 267 2 -0.35 12.004741869604857 2.8471731267804494 101.58214853730986 0 0 0
800 267 2 -0.35 14.305794697804789 2.735188051721333 101.87025465229064 0 0 0
799 267 1 0.7 13.155555899613095 2.7907440552591605 101.72476238937979 0 0 0
784 262 1 0.7 9.97772779236794 0.6979456606640353 101.8876326572691 0 0 0
381 127 2 -0.35 11.662329753539542 9.2128206960145 97.13716422131162 0 0 0
177 59 2 -0.35 12.389985698101208 1.6984185251191724 98.77664588832708 0 0 0
176 59 2 -0.35 10.223502251714562 1.6688830483188828 97.94025504231746 0 0 0
71 24 2 -0.35 13.18358637708265 3.993869511289898 96.53867864086713 0 0 0
70 24 1 0.7 13.003563392486498 4.809899429148302 95.73239009216319 0 0 0
319 107 1 0.7 14.69702128798222 8.056225474940598 96.59973099193067 0 0 0
72 24 2 -0.35 12.837636672683665 5.631802167790448 94.92915281447699 0 0 0
86 29 2 -0.35 18.57617652397172 3.685406034802192 95.49716911070229 0 0 0
256 86 1 0.7 16.10625331443553 0.9111330584805142 95.44051070057607 0 0 0
1890 630 2 -0.35 11.961330043750731 0.7179951375899478 95.61460994514947 0 1 0
320 107 2 -0.35 15.227529909506847 8.906160129231871 96.01500430429333 0 0 0
16 6 1 0.7 18.528620417425063 6.49354032948525 96.19868710923414 0 0 0
257 86 2 -0.35 15.348987668357735 0.7888700358965027 94.57052646688197 0 0 0
17 6 2 -0.35 17.42530322101564 6.643870700738487 95.86910093222653 0 0 0
82 28 1 0.7 9.668220408783347 8.20044451516977 94.32731102679114 0 0 0
326 109 2 -0.35 10.257135082538431 3.993765019005078 95.34434939954717 0 0 0
1888 630 1 0.7 11.150556789333788 0.9762203546849384 94.82483754039524 0 1 0
392 131 2 -0.35 12.720174067437512 9.013904716063411 94.28035117740029 0 0 0
369 123 2 -0.35 16.96294748727914 8.917979485724803 93.5339893228834 0 0 0
5579 1860 2 -0.35 18.390947382161794 1.261643163063415 93.35310408209412 0 1 0
786 262 2 -0.35 10.158694404868204 0.3022003888735405 100.81167075318652 0 0 0
325 109 1 0.7 9.625479122372756 4.096988583804648 94.3761818318157 0 0 0
46 16 1 0.7 18.642932219617194 1.7086215861096183 98.59681932871598 0 0 0
1889 630 2 -0.35 10.330868809175474 1.2179000094108614 94.03912442283 0 1 0
83 28 2 -0.35 10.051831252200314 7.364429831898421 93.6202965466079 0 0 0
26 9 2 -0.35 17.21776428588681 5.22358849237335 93.00627820918685 0 0 0
377 126 2 -0.35 13.019029482459167 2.7902254640102213 93.54162791719348 0 0 0
27 9 2 -0.35 15.74732287559458 4.010172075648725 94.33007536745113 0 0 0
25 9 1 0.7 16.481869610893973 4.621597406633157 93.67253546754108 0 0 0
77 26 2 -0.35 1.8810246738327443 9.555092556028725 94.13566841048055 0 0 0
93 31 2 -0.35 5.372894184954531 17.367596207291456 94.01163635642564 0 0 0
162 54 2 -0.35 0.20376852783179236 12.914672676594721 96.89380163693262 0 0 0
76 26 1 0.7 1.887481965329499 9.892500124794728 95.24670373930145 0 0 0
1319 440 2 -0.35 6.978908184370935 17.992338303240768 101.54012909450293 0 0 0
185 62 2 -0.35 7.624309586829046 11.08031878099964 97.14593635860582 0 0 0
356 119 2 -0.35 6.392504554955809 13.156511847821418 99.38768213489703 0 0 0
355 119 1 0.7 7.50509074647508 12.861544211057955 99.54066280209919 0 0 0
213 71 2 -0.35 1.57117215158428 16.125014041818805 97.49484278407108 0 0 0
211 71 1 0.7 1.2376393959212697 15.511203431657217 98.42193864049699 0 0 0
198 66 2 -0.35 3.2176302905404417 12.972888076710575 97.74783228768801 0 0 0
197 66 2 -0.35 4.108052570717538 10.956313090875481 98.47810120464365 0 0 0
196 66 1 0.7 3.657765420083847 11.961579500821996 98.11001461501834 0 0 0
150 50 2 -0.35 5.608665344176277 15.67916530188491 97.30029217042512 0 0 0
149 50 2 -0.35 5.810963444673011 13.551437431556655 96.39453751952725 0 0 0
148 50 1 0.7 5.706142369657193 14.615472732145964 96.847473101835 0 0 0
4554 1518 2 -0.35 1.1900925976163197 11.754843078962036 99.83512060067963 1 0 0
212 71 2 -0.35 0.889539833791072 14.903182600939678 99.34815832525146 0 0 0
1251 417 2 -0.35 3.9486368374198033 15.262998074864928 99.9622854569388 0 0 0
1250 417 2 -0.35 5.284267656768627 14.937694240302795 101.83294909034495 0 0 0
1249 417 1 0.7 4.617692282641911 15.098796471851061 100.89635904092604 0 0 0
1340 447 2 -0.35 8.411656304922161 15.433833986593218 100.49443022620339 0 0 0
1073 358 2 -0.35 6.446078467794835 10.110800189805406 100.37095289677129 0 0 0
541 181 1 0.7 3.5636928561651375 11.101369373040411 101.44708710176029 0 0 0
542 181 2 -0.35 3.213343319489011 10.004884399247487 101.59871485401864 0 0 0
543 181 2 -0.35 3.9164362785098694 12.197055110499042 101.29833004081411 0 0 0
357 119 2 -0.35 8.621260106220593 12.568959269249556 99.6719357402963 0 0 0
188 63 2 -0.35 8.644899875826749 14.743007184801444 97.21193804013635 0 0 0
383 128 2 -0.35 5.935434353741229 18.61036759407234 98.44935499160977 0 0 0
382 128 1 0.7 7.005829504937429 18.163913840004533 98.49527384890374 0 0 0
384 128 2 -0.35 8.07637290479967 17.7167568708088 98.54538532845696 0 0 0
255 85 2 -0.35 2.7133021561156463 18.433795085286555 99.25359917427151 0 0 0
421 141 1 0.7 2.989553016322085 13.85917885603588 94.87979616401324 0 0 0
184 62 1 0.7 7.948761382015186 11.545364331812443 96.13280762210181 0 0 0
1339 447 1 0.7 9.181895777620346 16.205976514142282 100.8931373910033 0 0 0
422 141 2 -0.35 3.3585481301957305 14.94127465645426 95.0802281540749 0 0 0
186 62 2 -0.35 8.263885920765334 12.010662647491 95.11780197271676 0 0 0
91 31 1 0.7 6.241647507852996 17.46865836607165 94.7735796315275 0 0 0
3530 1177 2 -0.35 0.48493700753575414 17.357751644292954 94.69982124504352 1 0 0
295 99 1 0.7 5.557405865807102 9.554860166936708 95.49530932838167 0 0 0
3529 1177 1 0.7 0.3898284743032402 16.201072319417168 94.73138309828092 1 0 0