LAMMPS data file via write_data, version 29 Aug 2024, timestep = 0, units = real

7050 atoms
2 atom types
4700 bonds
1 bond types
2350 angles
1 angle types

0 40 xlo xhi
0 40 ylo yhi
0 240 zlo zhi

Masses

1 12.0107
2 15.9994

Pair Coeffs # lj/cut/coul/long/omp

1 0.0536545 2.8
2 0.156989 3.05

Bond Coeffs # harmonic/omp

1 1028.27 1.16

Angle Coeffs # harmonic/omp

1 55.96 180

Atoms # full

6898 2300 1 0.7 12.359653145954798 16.749055400262804 9.581997993170043 0 0 0
6899 2300 2 -0.35 12.257066848024825 15.769296266112466 10.19449657829939 0 0 0
6900 2300 2 -0.35 12.459636012507767 17.72972835002788 8.970525581079276 0 0 0
6895 2299 1 0.7 16.276595919087036 8.656634866532492 31.844588975956253 0 0 0
6896 2299 2 -0.35 15.873036615583157 7.765689580159816 32.46926693208742 0 0 0
6907 2303 1 0.7 18.293773060963126 5.723062049736979 32.87407990214737 0 0 0
6908 2303 2 -0.35 18.69498787261859 6.616439870788944 32.251363783529236 0 0 0
6909 2303 2 -0.35 17.896310450167817 4.8285582431502325 33.496336370516666 0 0 0
6897 2299 2 -0.35 16.67649683488533 9.548701386861495 31.22038535309454 0 0 0
6912 2304 2 -0.35 11.398587594282242 1.1584532943873775 43.89639253292926 0 0 0
6921 2307 2 -0.35 8.14613460704307 0.44522021765986014 45.520243291295444 0 0 0
6920 2307 2 -0.35 7.354966308313351 1.5035778716946018 47.42767295059092 0 0 0
6919 2307 1 0.7 7.752037925216111 0.9756184861286303 46.474299017577245 0 0 0
6910 2304 1 0.7 11.004478583975004 1.6905243457355652 44.8487000726212 0 0 0
6911 2304 2 -0.35 10.613408912969874 2.225016563924387 45.801728661997664 0 0 0
6918 2306 2 -0.35 0.9487288704115638 16.214321407019774 48.67190901335617 0 0 0
6917 2306 2 -0.35 1.5077965864100713 16.710569099356988 46.47563769734844 0 0 0
6916 2306 1 0.7 1.2288554398550835 16.463173151350173 47.574093507985964 0 0 0
60 20 2 -0.35 8.674923240973673 3.4271321818069493 84.88409814185385 0 0 0
24 8 2 -0.35 5.641388618993865 1.7970062975610164 84.9880800984703 0 0 0
22 8 1 0.7 5.251913227754217 2.3200169373407005 84.02732553006213 0 0 0
114 38 2 -0.35 7.489501793630878 8.394926009656835 83.88792493801465 0 0 0
6 2 2 -0.35 5.163631669659271 6.039031540153265 82.94315506935146 0 0 0
5 2 2 -0.35 2.9397285802807187 5.4411780051365985 83.2388227337087 0 0 0
4 2 1 0.7 4.05384310610254 5.733138253839496 83.09123095239998 0 0 0
3481 1161 1 0.7 1.0102260482921646 7.003356665974363 85.22947888419523 1 0 0
23 8 2 -0.35 4.870991942906081 2.8433150257711244 83.06458270757864 0 0 0
3483 1161 2 -0.35 1.976389855856364 6.788562833783122 85.8370809290972 1 0 0
102 34 2 -0.35 0.3765232834379637 4.006998261399178 85.01367839860966 0 0 0
101 34 2 -0.35 2.1297072198623033 2.5054091864704455 84.7567675518352 0 0 0
100 34 1 0.7 1.2560443621139916 3.2601404196017576 84.88318846144571 0 0 0
78 26 2 -0.35 4.639609990758511 4.623969994763808 85.78971873704857 0 0 0
77 26 2 -0.35 4.642017078974713 5.738366158452304 87.8264808970072 0 0 0
76 26 1 0.7 4.638197007543699 5.181434478818483 86.80813884521994 0 0 0
112 38 1 0.7 7.510217183976881 7.401810507596686 84.48820494981526 0 0 0
59 20 2 -0.35 7.545030604676984 3.6964605926551948 86.89460064093974 0 0 0
58 20 1 0.7 8.116762066585437 3.5625261981897713 85.89274822743165 0 0 0
113 38 2 -0.35 7.544047529400285 6.408909991106826 85.08978364599699 0 0 0
6914 2305 2 -0.35 4.797641421510764 7.984111281762605 85.47011502254873 0 0 0
6913 2305 1 0.7 4.482582262807023 9.098192287119886 85.55794075487015 0 0 0
3489 1163 2 -0.35 0.150113244290243 1.2275832474544144 88.43675352186567 1 0 0
71 24 2 -0.35 3.2023629865856273 0.7227747687294642 87.13083377827995 0 0 0
749 250 2 -0.35 7.531338828116417 6.5921938670807565 88.38104894919502 0 0 0
313 105 1 0.7 2.775523843088047 7.796881350749617 88.6148739320722 0 0 0
315 105 2 -0.35 3.4950060950904525 8.63709470389686 88.26566383840411 0 0 0
328 110 1 0.7 5.706969403483231 1.833474529384399 88.26341562526561 0 0 0
329 110 2 -0.35 5.1880039641182005 2.8142017787856264 88.60399903839368 0 0 0
330 110 2 -0.35 6.232895272045261 0.8561317975721902 87.92515032864243 0 0 0
453 151 2 -0.35 1.9401652213746834 4.015315385352826 87.63835892084664 0 0 0
451 151 1 0.7 1.1845627494018414 4.110088412820643 88.51481225863 0 0 0
38 13 2 -0.35 8.868524849469 0.7562025913563808 86.46212860343067 0 0 0
3459 1153 2 -0.35 0.28311040104536833 8.984895040903785 87.33220424104725 1 0 0
70 24 1 0.7 3.3704564285498337 0.05783270947284677 86.19448205210176 0 0 0
3482 1161 2 -0.35 0.050343773683317536 7.224102565817013 84.61584556163075 1 0 0
105 35 2 -0.35 15.968563401798804 3.4290718398426137 85.71685522544864 0 0 0
104 35 2 -0.35 14.543708078936655 1.9868791478157741 84.58561163107487 0 0 0
103 35 1 0.7 15.257723867982662 2.7054979416511 85.15142658095391 0 0 0
96 32 2 -0.35 14.433127438951553 5.63783526935691 84.24061679864245 0 0 0
95 32 2 -0.35 12.67262130824158 6.458006246078165 85.5127906019994 0 0 0
94 32 1 0.7 13.553111253954269 6.052511460321575 84.87411893280972 0 0 0
17 6 2 -0.35 11.82715110436964 3.6661037883525536 84.13878361275304 0 0 0
82 28 1 0.7 15.629649153972192 9.35694369874989 86.06213223562419 0 0 0
117 39 2 -0.35 17.739650608761604 6.288033567750744 84.57019770434395 0 0 0
108 36 2 -0.35 14.984699147294673 5.751669015837784 87.46490905519698 0 0 0
107 36 2 -0.35 17.301996575175643 5.6906972256352155 87.57808581314521 0 0 0
106 36 1 0.7 16.143599335997422 5.716638294209834 87.51479932273644 0 0 0
83 28 2 -0.35 15.512482477070394 8.263443141583267 85.69047024674866 0 0 0
69 23 2 -0.35 17.37701608232473 0.5398247090071171 85.46460882612728 0 0 0
41 14 2 -0.35 18.16935098269565 2.690960421535168 87.7474022722994 0 0 0
29 10 2 -0.35 10.112412862834796 5.435478174156767 86.9761523325951 0 0 0
28 10 1 0.7 10.053683068130088 6.572889772975076 86.75176425153977 0 0 0
26 9 2 -0.35 12.840705741394128 3.3346803536623435 87.02541473315344 0 0 0
25 9 1 0.7 12.605700943789476 4.016624234718507 87.93503391170539 0 0 0
18 6 2 -0.35 11.365977510685372 1.4354743481550634 84.58939520468779 0 0 0
16 6 1 0.7 11.596079312626138 2.5510188551077158 84.36627386639488 0 0 0
30 10 2 -0.35 9.986820641975942 7.707187247343646 86.51426244332944 0 0 0
40 14 1 0.7 18.695092762896163 3.1967019704897326 86.84405334729342 0 0 0
200 67 2 -0.35 15.20829235239835 1.2027164182587822 87.75925428395648 0 0 0
115 39 1 0.7 17.572173895072545 5.370679963546749 83.87891438024576 0 0 0
12 4 2 -0.35 18.331291721817696 12.474500278342447 85.44540261579594 0 0 0
525 175 2 -0.35 14.04359749972097 8.542322717732928 88.43886298623734 0 0 0
116 39 2 -0.35 17.405205606431483 4.455676687794272 83.18510737760407 0 0 0
3494 1165 2 -0.35 18.310511959244362 8.596889155849132 87.09511467118409 0 0 0
50 17 2 -0.35 8.692897821171009 9.603504463693623 88.65537420502443 0 0 0
89 30 2 -0.35 5.0480491630466515 18.73203372392892 84.86736353169678 0 0 0
87 29 2 -0.35 7.232479303422343 16.444089210647014 84.76831150622989 0 0 0
110 37 2 -0.35 8.271939254420213 11.58043677477817 82.81207634575587 0 0 0
109 37 1 0.7 8.81614598323383 11.311540929849182 83.80089655788296 0 0 0
49 17 1 0.7 7.973495516546778 9.586894056802437 87.74505472829838 0 0 0
6915 2305 2 -0.35 4.158262867741114 10.210293981803147 85.62823711708309 0 0 0
3473 1158 2 -0.35 0.8457382115840392 15.825992224758004 86.73090536005442 1 0 0
66 22 2 -0.35 2.5609967257146984 13.202337442939939 86.83147034959624 0 0 0
3472 1158 1 0.7 1.8739082697267848 16.36450967360009 86.69663382961305 1 0 0
51 17 2 -0.35 7.251734873188153 9.572899664361078 86.83495068729707 0 0 0
3474 1158 2 -0.35 2.8944396437106663 16.916001244181896 86.65904844713354 1 0 0
300 100 2 -0.35 6.4155948600684845 14.846420018599051 88.74015698573105 0 0 0
99 33 2 -0.35 8.873231676311645 15.862935919382808 87.35318836692963 0 0 0
97 33 1 0.7 8.87039218029191 16.55498173364224 88.28616624623348 0 0 0
86 29 2 -0.35 5.522502747611217 15.300759219355065 85.8441496127642 0 0 0
85 29 1 0.7 6.374995709940603 15.876493425888127 85.3067842493909 0 0 0
65 22 2 -0.35 2.1380047082270095 11.382658474431388 88.20995751253065 0 0 0
64 22 1 0.7 2.349504467390471 12.291349467056758 87.51915419492333 0 0 0
53 18 2 -0.35 8.74432686544529 12.605838814173724 87.58670874792962 0 0 0
47 16 2 -0.35 6.0162283766202 17.8050994715217 87.73028867733204 0 0 0
46 16 1 0.7 5.177940010885428 18.585061791805906 87.92204128177784 0 0 0
36 12 2 -0.35 6.5474596232049125 12.440990809065967 85.3630876504453 0 0 0
35 12 2 -0.35 5.462984984898658 12.335166742177991 87.41326846814798 0 0 0
34 12 1 0.7 6.005628869900737 12.387569664790306 86.38806544033433 0 0 0
10 4 1 0.7 17.430065075156055 12.98821626895602 85.96613048113572 0 0 0
545 182 2 -0.35 18.498522378955897 18.003909138870515 88.38463263610332 0 0 0
3532 1178 1 0.7 18.692810664932374 16.599050703894317 84.82691055829032 0 0 0
44 15 2 -0.35 11.246324857216326 10.475928649243988 87.14332672703632 0 0 0
21 7 2 -0.35 13.606676929859619 11.78263055278211 88.52726393263814 0 0 0
54 18 2 -0.35 10.842811688528231 13.524586349464991 87.20551521833315 0 0 0
3533 1178 2 -0.35 18.240962652026038 15.65309489814853 84.32752240890467 0 0 0
84 28 2 -0.35 15.753729038045392 10.449339020925445 86.43563612119995 0 0 0
45 15 2 -0.35 12.699153912610331 9.70646529277015 85.50509478798038 0 0 0
63 21 2 -0.35 13.430273110375884 12.964369581888663 85.56651793185502 0 0 0
92 31 2 -0.35 10.665183897447628 16.325129236158663 84.58959978841794 0 0 0
11 4 2 -0.35 16.522688898244432 13.492937531259123 86.48543986607244 0 0 0
55 19 1 0.7 15.820495762635005 16.97566527802115 87.52845469368809 0 0 0
57 19 2 -0.35 16.361188287564858 16.574756184287732 86.58377228114159 0 0 0
80 27 2 -0.35 11.661219070792583 17.272683769147367 87.41501326989186 0 0 0
61 21 1 0.7 13.589882342067519 13.868416212606997 86.27677095078619 0 0 0
56 19 2 -0.35 15.270705445482047 17.37573348829395 88.46942821877377 0 0 0
81 27 2 -0.35 13.400713204446758 17.719550277677016 85.94429142935014 0 0 0
111 37 2 -0.35 9.375749575418627 11.039814813528691 84.78143264539136 0 0 0
93 31 2 -0.35 9.510216430146043 14.311029641020548 84.5486972670336 0 0 0
75 25 2 -0.35 15.800808306085143 17.608277341707947 83.69765829089506 0 0 0
74 25 2 -0.35 14.586232505784183 15.646512128655226 83.95844247916905 0 0 0
73 25 1 0.7 15.193647765667263 16.627123470951812 83.82665110165844 0 0 0
15 5 2 -0.35 12.812652595949869 18.59063025911591 82.85867354036381 0 0 0
62 21 2 -0.35 13.746159111012338 14.772556796908702 86.98932828143782 0 0 0
52 18 1 0.7 9.79618558771654 13.05915884559318 87.39551448657794 0 0 0
79 27 1 0.7 12.529642445993872 17.497241239431304 86.67942014435393 0 0 0
91 31 1 0.7 10.082116430413251 15.320972494367988 84.57144746823242 0 0 0
43 15 1 0.7 11.970575872105215 10.09183862748642 86.32205976355486 0 0 0
130 44 1 0.7 2.9002844378687582 2.461943445940602 94.77185545764893 0 0 0
131 44 2 -0.35 2.535704154909337 3.1490287994524677 95.6326849588405 0 0 0
2168 723 2 -0.35 4.235207985365544 1.8765350985166471 98.2010502307961 0 1 0
847 283 1 0.7 8.478552671236098 1.8061240321623453 97.70394510509747 0 0 0
142 48 1 0.7 0.48736139034206183 1.8168061660522035 98.10386858231605 0 0 0
821 274 2 -0.35 7.83740001087483 7.552791935966042 100.8438946089658 0 0 0
820 274 1 0.7 8.707243205986858 8.104160437265232 100.307717457692 0 0 0
752 251 2 -0.35 2.1481654128546497 9.019106515706433 100.0913019885939 0 0 0
751 251 1 0.7 1.1618068204361365 9.141965813485328 100.6907562640683 0 0 0
735 245 2 -0.35 7.2615664249754515 6.521497788530219 98.12108093611204 0 0 0
734 245 2 -0.35 7.724956600429383 4.665656606125887 96.80526849710459 0 0 0
733 245 1 0.7 7.488447441658817 5.592935541607143 97.46290160678075 0 0 0
690 230 2 -0.35 2.489407058431551 1.6558439255583743 103.01782545805202 0 0 0
689 230 2 -0.35 3.223139420772433 3.1550982417816233 101.40285796271338 0 0 0
688 230 1 0.7 2.857435135072041 2.4036938258426086 102.20942567632291 0 0 0
221 74 2 -0.35 5.750689184355043 2.681908124071621 95.44361834655551 0 0 0
2169 723 2 -0.35 5.289892914739572 3.8771072866411647 98.72867801768001 0 1 0
657 219 2 -0.35 6.7262936984261215 8.46658447117285 103.699564036586 0 0 0
656 219 2 -0.35 4.459146352764506 8.746136555205016 104.1091910645572 0 0 0
655 219 1 0.7 5.591971975527855 8.608412347995975 103.89844361502685 0 0 0
633 211 2 -0.35 4.7432437933564975 8.674491924083998 97.07013798504066 0 0 0
632 211 2 -0.35 4.653029396501663 6.420114912973042 96.52104547810217 0 0 0
631 211 1 0.7 4.6988977043873215 7.547599948363729 96.79598930676374 0 0 0
4115 1372 2 -0.35 1.3953670480761833 15.865847181883783 102.37423634878996 1 0 0
256 86 1 0.7 8.151530829962851 8.807826224240252 95.13866269953927 0 0 0
257 86 2 -0.35 7.368655789185318 7.990007099057615 95.39330908039975 0 0 0
561 187 2 -0.35 7.969851769127161 4.130790457310062 100.21275820072958 0 0 0
559 187 1 0.7 7.457141636762424 4.427505805923922 101.21080423649114 0 0 0
883 295 1 0.7 1.946696919248433 5.699661089701891 98.05656580019074 0 0 0
293 98 2 -0.35 1.621805067944543 7.336282693037333 103.66353917970635 0 0 0
884 295 2 -0.35 2.301988201966883 4.625433907589551 98.31509435942115 0 0 0
885 295 2 -0.35 1.5884249175722578 6.774526155825904 97.80347031711891 0 0 0
319 107 1 0.7 4.295505223498859 6.591683278376572 100.81392145018901 0 0 0
320 107 2 -0.35 4.277685619695159 6.428559842403068 101.96281891113904 0 0 0
321 107 2 -0.35 4.320265193770332 6.750811582818689 99.66450546859947 0 0 0
446 149 2 -0.35 6.051239226199222 1.4892288455790486 100.79121147358876 0 0 0
2167 723 1 0.7 4.755467665114355 2.8804625749103514 98.46557621497675 0 1 0
578 193 2 -0.35 7.590545216364598 1.7034128222667189 103.35247361007309 0 0 0
577 193 1 0.7 6.566141228448131 2.139308610100359 103.68110049891327 0 0 0
513 171 2 -0.35 18.50798679331131 16.57908019538189 103.90408166295775 0 0 0
220 74 1 0.7 6.703054186502524 2.68684899083714 94.77943301929297 0 0 0
848 283 2 -0.35 7.460588034539733 1.4210806722051632 98.10666340955493 0 0 0
222 74 2 -0.35 7.659626808033683 2.681084558200157 94.12092368640347 0 0 0
341 114 2 -0.35 2.1669821673908327 6.404716458053289 94.857197157438 0 0 0
132 44 2 -0.35 3.2643553132064924 1.7664156430172953 93.91621617538061 0 0 0
143 48 2 -0.35 1.1346850523285428 1.6402740110607734 99.05076431985825 0 0 0
369 123 2 -0.35 1.476093096524598 9.196525304153422 93.81665606463636 0 0 0
874 292 1 0.7 7.063693224441011 6.251966629291336 93.00883153417979 0 0 0
875 292 2 -0.35 6.595564477804948 5.4269441042914375 93.6758049360807 0 0 0
340 114 1 0.7 2.893479368870284 5.746525980615017 94.23638558336322 0 0 0
3750 1250 2 -0.35 1.1943205346089765 6.112073538067744 100.86573093910839 1 0 0
342 114 2 -0.35 3.6110234013434748 5.085447644173715 93.60872102076166 0 0 0
651 217 2 -0.35 4.602355918381485 8.120394549370655 93.70433897643211 0 0 0
560 187 2 -0.35 6.947521269644538 4.71400729666278 102.21302155001692 0 0 0
381 127 2 -0.35 7.331760751091495 1.757859655872684 90.78708726562229 0 0 0
722 241 2 -0.35 1.3619821380401447 1.9353796624524995 91.23209194515198 0 0 0
649 217 1 0.7 4.219415684058011 8.602490132155419 92.72010967393857 0 0 0
783 261 2 -0.35 17.019908595656748 15.106826107110738 89.67832389864867 0 0 0
804 268 2 -0.35 1.4350533216494572 6.636106114026841 91.84679212962676 0 0 0
3972 1324 2 -0.35 0.2911686522601593 1.1143057671958498 94.31636428257765 1 0 0
802 268 1 0.7 0.37950006835988054 6.713953992879988 91.36811224932227 0 0 0
379 127 1 0.7 6.5074385092967555 2.366619004229042 91.33262098883456 0 0 0
723 241 2 -0.35 1.0542846440284928 3.67750403620771 92.73733953187343 0 0 0
876 292 2 -0.35 7.536604128440519 7.081657192914547 92.34794794463971 0 0 0
721 241 1 0.7 1.2065837896810603 2.8084422732948053 91.98144656009742 0 0 0
380 127 2 -0.35 5.676917025076917 2.9736060680354224 91.86989734167247 0 0 0
753 251 2 -0.35 0.169193548835308 9.265830491037333 101.28110516240282 0 0 0
367 123 1 0.7 0.5763454986209678 9.38369427202725 94.52515493628165 0 0 0
479 160 2 -0.35 4.761378016298173 6.124063112739966 90.95809307295546 0 0 0
478 160 1 0.7 4.020048433717937 5.254501982423804 90.74950541956291 0 0 0
445 149 1 0.7 6.260911591509994 0.3652017737590877 100.58712582358089 0 0 0
480 160 2 -0.35 3.267871184350813 4.396603907755879 90.53644639235372 0 0 0
650 217 2 -0.35 3.8427494343201474 9.070528362645767 91.72699905890371 0 0 0
452 151 2 -0.35 0.4244271793542474 4.19777427736174 89.38790777851767 0 0 0
1983 661 2 -0.35 4.0333921353895175 0.34069674596389155 90.22034382035733 0 1 0
750 250 2 -0.35 7.457051421636746 4.9135694465916835 89.98389225257786 0 0 0
748 250 1 0.7 7.496641565161666 5.752651186368788 89.18231255065525 0 0 0
579 193 2 -0.35 5.537572756906675 2.5766628708628456 103.99486837642522 0 0 0
314 105 2 -0.35 2.0611682702947864 6.9507807231865915 88.96394095414793 0 0 0
849 283 2 -0.35 9.49263071787192 2.20470118482676 97.3040228439014 0 0 0
262 88 1 0.7 18.472582251252398 3.402450754007115 97.66220023873859 0 0 0
530 177 2 -0.35 10.637421618041097 11.793579445002258 89.99458830648962 0 0 0
482 161 2 -0.35 16.635503473364576 6.24437847922636 94.24337292950388 0 0 0
740 247 2 -0.35 9.5768914381009 5.458471763763798 94.41448941399744 0 0 0
845 282 2 -0.35 11.98681195922118 8.928354482966558 94.77389125193484 0 0 0
851 284 2 -0.35 16.29548692584133 8.980595505214398 98.8555883752861 0 0 0
157 53 1 0.7 16.9872184474588 6.823555371006517 100.92533496881701 0 0 0
158 53 2 -0.35 15.84758950645346 6.603806605712127 100.93478978297625 0 0 0
159 53 2 -0.35 18.125772086745286 7.051351575442571 100.92485610420279 0 0 0
786 262 2 -0.35 11.921148449767166 6.343664644899154 103.27891245840895 0 0 0
785 262 2 -0.35 10.477584849236598 6.164069511479516 101.46960820997703 0 0 0
784 262 1 0.7 11.201016082118043 6.2571129005290995 102.37314745969836 0 0 0
732 244 2 -0.35 13.547399456327673 7.83648887935555 98.15901663693771 0 0 0
731 244 2 -0.35 14.957060228357836 7.632384232567659 96.32477635144346 0 0 0
730 244 1 0.7 14.25687108758321 7.739671353778616 97.24426257356718 0 0 0
228 76 2 -0.35 16.888991265500707 7.348669217888304 103.87399628978032 0 0 0
235 79 1 0.7 11.00378707504548 6.849014983167308 96.57210135734394 0 0 0
236 79 2 -0.35 11.930124393453507 6.204233470314554 96.2979424133672 0 0 0
237 79 2 -0.35 10.067911752992265 7.482922208361562 96.83497815309012 0 0 0
252 84 2 -0.35 14.230681967111266 2.2079468609986646 100.09670193092389 0 0 0
600 200 2 -0.35 15.261177578740439 1.108901549254272 97.19408388999432 0 0 0
598 200 1 0.7 15.339664534004331 0.5656670934235156 96.17045389638258 0 0 0
2032 678 1 0.7 18.31585989307711 2.5775706039655866 101.69842196603403 0 1 0
582 194 2 -0.35 15.644465613487473 3.7451923905388598 102.55085564804519 0 0 0
581 194 2 -0.35 13.359665221997199 3.428058343566293 102.821215464021 0 0 0
580 194 1 0.7 14.502657938108527 3.5851416649772316 102.69059643431048 0 0 0
201 67 2 -0.35 16.202545572347194 0.8168023513308497 89.82114656172024 0 0 0
251 84 2 -0.35 12.649316767905482 0.5861122829287012 99.58817241180188 0 0 0
465 155 2 -0.35 10.994358098503344 1.5553329834439076 102.5123072573485 0 0 0
464 155 2 -0.35 10.0056298327395 3.593937544704236 103.02273152088492 0 0 0
463 155 1 0.7 10.502923036418657 2.573977987188892 102.77426960116789 0 0 0
352 118 1 0.7 10.640964355919422 4.092188673627695 99.27068466983252 0 0 0
353 118 2 -0.35 10.911292415383802 3.20479622381607 99.96830425727755 0 0 0
354 118 2 -0.35 10.366099546509378 4.977206065903706 98.57141437811794 0 0 0
741 247 2 -0.35 10.57563541581487 3.3668075638077117 94.54666810640227 0 0 0
429 143 2 -0.35 14.748989366582641 4.981104710905834 98.4154877907128 0 0 0
428 143 2 -0.35 13.230724287428227 5.186522277068445 100.15945185188514 0 0 0
427 143 1 0.7 13.996319548290172 5.082986538060886 99.2929012284113 0 0 0
420 140 2 -0.35 12.599832720409609 3.175770033838285 97.3022285768914 0 0 0
419 140 2 -0.35 13.440075374089327 2.774040519051938 95.17590876868479 0 0 0
418 140 1 0.7 13.021094954227845 2.9791597835426646 96.23824547332272 0 0 0
411 137 2 -0.35 9.859983776647512 9.018975304362703 103.51504882061147 0 0 0
401 134 2 -0.35 12.647901397647363 8.668034776211167 101.21550211619069 0 0 0
331 111 1 0.7 10.48087518219431 7.25801573477262 91.05416288484483 0 0 0
599 200 2 -0.35 15.415303930208465 0.023748681241268103 95.14577804210792 0 0 0
822 274 2 -0.35 9.568617143853588 8.673436772095547 99.7766165863257 0 0 0
226 76 1 0.7 16.847043797778646 8.433740065210625 104.28354884325834 0 0 0
177 59 2 -0.35 16.382226433525172 3.232496049913225 95.17765858859443 0 0 0
219 73 2 -0.35 17.45691924734386 6.340876037829303 97.98163373385567 0 0 0
818 273 2 -0.35 13.349219003569939 0.6494754638685023 92.95198295054949 0 0 0
739 247 1 0.7 10.071005546128 4.409607135268985 94.47770456409832 0 0 0
2089 697 1 0.7 10.419350360338797 0.5324665423559586 93.22017058221795 0 1 0
612 204 2 -0.35 13.995741700067303 7.47196556240017 93.19315261380582 0 0 0
611 204 2 -0.35 12.779333527017029 5.512526487853954 93.4597588692626 0 0 0
610 204 1 0.7 13.391897623458881 6.489718571764439 93.32727003476418 0 0 0
575 192 2 -0.35 12.531651220712023 3.216516489229159 91.4263891673651 0 0 0
481 161 1 0.7 16.79646712110772 7.271820738507537 93.7275709075438 0 0 0
576 192 2 -0.35 10.500220928164198 4.332863384696323 91.5617013790001 0 0 0
819 273 2 -0.35 15.245771512261346 1.939594337274722 92.5911766383937 0 0 0
250 84 1 0.7 13.444271352120493 1.3908218238426795 99.84804294530012 0 0 0
574 192 1 0.7 11.513915490509039 3.771546526776695 91.48865509148423 0 0 0
217 73 1 0.7 18.026092986477167 6.824560392429969 97.09405845634977 0 0 0
2090 697 2 -0.35 10.34415006695152 1.1765964812268053 92.25682686667844 0 1 0
176 59 2 -0.35 17.942560141635738 3.5376324502776604 93.48556033212066 0 0 0
218 73 2 -0.35 18.601161607719654 7.311360835920611 96.2102359557383 0 0 0
333 111 2 -0.35 10.833845152328875 7.486677448988569 92.13698847991807 0 0 0
817 273 1 0.7 14.294914057054791 1.3007330906022354 92.77647550535617 0 0 0
175 59 1 0.7 17.15999763995814 3.384856903939155 94.32947055627375 0 0 0
483 161 2 -0.35 16.974109518706907 8.295571061789131 93.21034581263338 0 0 0
790 264 1 0.7 15.3117779505604 4.344343870910369 90.78671376502692 0 0 0
792 264 2 -0.35 15.357617705833507 4.911228711364984 91.79823808973573 0 0 0
523 175 1 0.7 13.772691332899646 7.84841171139558 89.32985258301524 0 0 0
5969 1990 2 -0.35 18.290629680093968 0.9043939333596481 95.75766054690718 0 1 0
761 254 2 -0.35 16.860382852784237 7.152610594986933 90.19649096812338 0 0 0
524 175 2 -0.35 13.50160335330253 7.1444771528478395 90.21260962276234 0 0 0
2034 678 2 -0.35 17.867292398198476 1.51564683951651 101.83792152067822 0 1 0
2175 725 2 -0.35 9.696561321704602 0.21585006912603918 89.36480547280296 0 1 0
2435 812 2 -0.35 13.786668166654803 0.06794901333271675 102.57804577120157 0 1 0
791 264 2 -0.35 15.260551880312885 3.7889612340238874 89.76830236265593 0 0 0
264 88 2 -0.35 18.151197359671855 2.7969467337685776 98.5988015036439 0 0 0
2174 725 2 -0.35 10.188024651991942 2.4437003158801187 88.93535315893823 0 1 0
2145 715 2 -0.35 12.871248423892942 0.5572759005041393 89.9014845337043 0 1 0
760 254 1 0.7 18.004817366698735 7.211997375599006 90.00890549309167 0 0 0
3878 1293 2 -0.35 18.304628990357205 4.238102488556038 90.47848727013039 0 0 0
332 111 2 -0.35 10.13210690651869 7.019764517692582 89.97287292488194 0 0 0
2391 797 2 -0.35 12.476975842311553 0.06556148097426366 96.56432871972291 0 1 0
2173 725 1 0.7 9.93692320704965 1.3305089744021343 89.14759906280443 0 1 0
450 150 2 -0.35 8.633849821532094 18.533605561136607 94.47422467607237 0 0 0
3680 1227 2 -0.35 0.12462272940299086 17.546725430596503 95.63274918992668 1 0 0
299 100 2 -0.35 4.194261463691993 15.425167022468083 89.08452901862285 0 0 0
396 132 2 -0.35 0.7739477712582846 14.573949447825242 99.60361030853088 0 0 0
3863 1288 2 -0.35 0.08889240376185356 12.469066359424117 103.66522579676518 1 0 0
475 159 1 0.7 1.2418142905536587 10.444481575720191 91.12215017603731 0 0 0
509 170 2 -0.35 9.028784749112038 14.34289378023313 90.40855642209358 0 0 0
246 82 2 -0.35 8.896866268765645 9.81631350274245 91.64522262743243 0 0 0
477 159 2 -0.35 1.3445748890931224 11.425820838276108 91.73317707926032 0 0 0
671 224 2 -0.35 5.2433737430871865 9.431374687671536 101.02428127583258 0 0 0
244 82 1 0.7 7.829511343931678 10.001313433786597 92.05987957874571 0 0 0
510 170 2 -0.35 7.508510473965987 12.595254503631717 90.57588773553645 0 0 0
258 86 2 -0.35 8.935759975234852 9.618819482965604 94.86433064685274 0 0 0
796 266 1 0.7 2.357662572202977 14.078831206160048 90.9939432016871 0 0 0
405 135 2 -0.35 2.745514997344074 17.479714872788474 91.50216451478937 0 0 0
403 135 1 0.7 1.676900176362065 17.248701449568483 91.89283142778207 0 0 0
508 170 1 0.7 8.2696565668287 13.468292386283615 90.49545311528608 0 0 0
476 159 2 -0.35 1.1278409862577832 9.46434664456134 90.51122448135735 0 0 0
394 132 1 0.7 1.128055436677736 14.991784116089647 98.58045105977772 0 0 0
824 275 2 -0.35 6.760187420050144 18.167742256049955 99.03909192394038 0 0 0
305 102 2 -0.35 5.72363039102872 16.36591894385359 93.7982973458246 0 0 0
395 132 2 -0.35 1.492803879318474 15.418206686133667 97.56379382495517 0 0 0
4116 1372 2 -0.35 2.664789053316684 13.936980252238298 102.1236140700791 1 0 0
119 40 2 -0.35 6.6490547898900285 14.191194056618956 95.90321340193206 0 0 0
837 279 2 -0.35 6.758966470707425 13.586322992519367 102.34621331415748 0 0 0
836 279 2 -0.35 6.028517039313953 11.666459238029432 103.42946762282487 0 0 0
835 279 1 0.7 6.393454329636077 12.627862845814278 102.890587098786 0 0 0
2388 796 2 -0.35 1.2337369054730543 18.33250148369645 88.88686923076791 0 0 0
168 56 2 -0.35 9.021755618208116 12.350563071735262 104.2666767225945 0 0 0
767 256 2 -0.35 4.835004297858403 16.165050760257195 101.92327483396465 0 0 0
766 256 1 0.7 5.964452921756107 16.38862633835766 101.77405334151663 0 0 0
702 234 2 -0.35 4.880174534258354 11.909864557928273 97.30532758841333 0 0 0
701 234 2 -0.35 6.512125780278208 11.091276283073652 95.87124019593175 0 0 0
700 234 1 0.7 5.694907227488667 11.495591523453756 96.59028932101047 0 0 0
214 72 1 0.7 2.8775974461624565 11.28530825201909 103.73200636751979 0 0 0
215 72 2 -0.35 2.5079422153977635 10.728500625851723 102.78239242607447 0 0 0
672 224 2 -0.35 6.54491482409845 10.023530172489425 99.195383559085 0 0 0
670 224 1 0.7 5.886522866818939 9.734103746094341 100.10698997596823 0 0 0
224 75 2 -0.35 8.747453591645657 16.32313465690887 104.32739683561647 0 0 0
247 83 1 0.7 2.1107789372596906 11.080314670958312 97.76475111249667 0 0 0
248 83 2 -0.35 2.112681693650745 10.371249876935002 96.84575282800084 0 0 0
249 83 2 -0.35 2.0973862209002436 11.790370710543804 98.68335123124554 0 0 0
254 85 2 -0.35 8.475011604082301 11.033846537131904 101.45687943114802 0 0 0
98 33 2 -0.35 8.867446609639064 17.240041583215802 89.22344633827653 0 0 0
489 163 2 -0.35 0.3195583216741862 17.805794945987312 100.0723620785308 0 0 0
3749 1250 2 -0.35 0.22668129343472287 4.288636093130786 101.92779315278986 1 0 0
487 163 1 0.7 1.1399733400473648 18.321375345159854 100.7128047361271 0 0 0
894 298 2 -0.35 3.456179887063252 14.110706031599188 95.2820569702329 0 0 0
893 298 2 -0.35 2.757164471649794 16.20991932264868 94.5773396603415 0 0 0
462 154 2 -0.35 3.999801692566293 14.354991018976165 99.28781027370995 0 0 0
461 154 2 -0.35 4.835290347674034 12.458906739540978 100.33601770123471 0 0 0
460 154 1 0.7 4.4101183143777565 13.401248534294497 99.80795487892757 0 0 0
373 125 1 0.7 4.090612185065766 17.061015451783433 98.04374645460334 0 0 0
374 125 2 -0.35 3.581217251185775 17.4963926092725 98.99169592799011 0 0 0
375 125 2 -0.35 4.599111539060378 16.6169320656212 97.09918744472164 0 0 0
892 298 1 0.7 3.107557501003215 15.16117703400028 94.93348557388516 0 0 0
118 40 1 0.7 7.120760934078037 15.203540702047599 96.21794885695041 0 0 0
120 40 2 -0.35 7.615098966446004 16.20268263355755 96.54029348290943 0 0 0
768 256 2 -0.35 7.092705987127604 16.60372576559541 101.60543009027992 0 0 0
359 120 2 -0.35 5.603836085578713 13.221171003370554 93.0754820603895 0 0 0
823 275 1 0.7 7.864944642965466 17.810530262253103 99.03102052447586 0 0 0
358 120 1 0.7 4.902903040103572 12.350146222834638 93.38757466285305 0 0 0
360 120 2 -0.35 4.205081867387373 11.477546033156969 93.70223428331143 0 0 0
245 82 2 -0.35 6.765252723833707 10.170032745637798 92.49275304712184 0 0 0
404 135 2 -0.35 0.6119435294602633 17.00739778429321 92.28579790505992 0 0 0
825 275 2 -0.35 8.966014054453701 17.441064401955273 99.0387358202509 0 0 0
442 148 1 0.7 8.407679473192903 14.241604357799394 99.82749462042263 0 0 0
443 148 2 -0.35 7.452727807559243 14.491252772234114 99.21496373916762 0 0 0
416 139 2 -0.35 8.757560096527948 15.569649792609725 93.20168242025233 0 0 0
304 102 1 0.7 5.916964085958111 16.16081731295832 92.67214112299038 0 0 0
4114 1372 1 0.7 2.0283704461263015 14.899939183276203 102.25087250878131 1 0 0
798 266 2 -0.35 2.8877660928592754 14.374092046193779 91.98403852211752 0 0 0
306 102 2 -0.35 6.107716853800353 15.958698144546496 91.54551059401264 0 0 0
8 3 2 -0.35 5.797114447336895 10.192746831711144 89.59770981657725 0 0 0
432 144 2 -0.35 8.854233053336781 12.442233370489669 93.3342885321235 0 0 0
430 144 1 0.7 9.22387437578946 12.726142854005152 94.39661054904263 0 0 0
7 3 1 0.7 5.093933275569168 11.03753590898701 89.97167314845959 0 0 0
9 3 2 -0.35 4.394983559407608 11.882481513034651 90.35553689677309 0 0 0
797 266 2 -0.35 1.8205949949648936 13.792600072904438 90.00575534144348 0 0 0
298 100 1 0.7 5.3044877803933845 15.13568139983316 88.9096633276679 0 0 0
2 1 2 -0.35 18.209750271599223 10.192567595055838 90.00724965901058 0 0 0
844 282 1 0.7 11.731897319350654 9.756103274714821 94.0011777921642 0 0 0
20 7 2 -0.35 15.81001111233067 12.105045232140524 89.17816093253585 0 0 0
531 177 2 -0.35 11.731560059110084 9.752212669103583 90.16585588097128 0 0 0
2432 811 2 -0.35 14.91994134062649 18.664899856796087 96.4471064648182 0 0 0
529 177 1 0.7 11.178910895450485 10.769359750805313 90.07376977983544 0 0 0