LAMMPS data file via write_data, version 29 Aug 2024, timestep = 4000000, units = real

7050 atoms
2 atom types
4700 bonds
1 bond types
2350 angles
1 angle types

0 40 xlo xhi
0 40 ylo yhi
0 240 zlo zhi

Masses

1 12.0107
2 15.9994

Pair Coeffs # lj/cut/coul/long/omp

1 0.0536545 2.8
2 0.156989 3.05

Bond Coeffs # harmonic/omp

1 1028.27 1.16

Angle Coeffs # harmonic/omp

1 55.96 180

Atoms # full

789 263 2 -0.35 14.614815147663585 3.933198191839862 11.705847836832321 4 0 0
788 263 2 -0.35 15.978540633931246 4.688361349731272 13.456455029741253 4 0 0
787 263 1 0.7 15.253715987414036 4.273974829751273 12.619322730390074 4 0 0
1392 464 2 -0.35 18.485063419271867 11.635666057984986 15.665514267422527 -3 -2 1
1390 464 1 0.7 18.95321323797008 12.4206498064156 14.928355788210007 -3 -2 1
1391 464 2 -0.35 19.394544494861876 13.113084708256146 14.112764129623399 -3 -2 1
6693 2231 2 -0.35 9.799033068000186 16.985499395885416 25.322083567393335 2 -8 1
6692 2231 2 -0.35 9.52895481406522 19.27174145590649 25.735069755746856 2 -8 1
6691 2231 1 0.7 9.621196307867361 18.136296199004423 25.536266213648204 2 -8 1
6104 2035 2 -0.35 0.2563746748872104 3.7359162663420387 32.99246402746221 5 3 1
3792 1264 2 -0.35 18.94114549647898 4.261020268915235 27.724469412847085 1 2 0
3790 1264 1 0.7 18.475334071039043 3.581376549852867 26.899326852409793 1 2 0
3791 1264 2 -0.35 18.080976411031028 2.979738347752305 26.005506959092788 1 2 0
4283 1428 2 -0.35 18.73101558386746 8.867655997897744 42.58726191447395 2 -1 0
4282 1428 1 0.7 18.4498364779149 9.982365164818965 42.63531176533434 2 -1 0
4284 1428 2 -0.35 18.117851347762386 11.0864127690971 42.60479310474311 2 -1 0
4408 1470 1 0.7 0.4627055428895474 16.940735439641912 55.49044234689249 -1 -3 0
4410 1470 2 -0.35 1.0096789131375135 16.106009012748643 54.86984402047766 -1 -3 0
5898 1966 2 -0.35 8.465778304216075 3.6850237948933007 65.29803985425845 4 0 0
471 157 2 -0.35 2.83776239547264 8.528817572774416 66.82347235063217 2 0 0
469 157 1 0.7 3.4112459977692104 7.742558160646383 66.22480323260493 2 0 0
470 157 2 -0.35 3.9020114955343517 6.987798707925762 65.51929189661112 2 0 0
4227 1409 2 -0.35 4.053415543904549 4.501508340417305 67.93875945062607 1 -1 0
5896 1966 1 0.7 8.134193965288903 4.114802305392023 64.29108894968192 4 0 0
3326 1109 2 -0.35 8.89303465796572 9.840348649695832 65.87914091184874 2 -1 0
5897 1966 2 -0.35 7.8041493398658 4.468288247253611 63.221323037357664 4 0 0
4225 1409 1 0.7 4.641215730858471 4.153323895773842 67.0119865438889 1 -1 0
4226 1409 2 -0.35 5.197093848191772 3.775869878364042 66.05986896864061 1 -1 0
5480 1827 2 -0.35 9.343198433306329 4.072005594791433 68.99094722609289 -3 2 0
496 166 1 0.7 7.287801262417886 0.3544116697026772 67.13147991886518 1 0 0
5250 1750 2 -0.35 5.0207802305159035 7.505162127403565 68.85245021261116 2 0 0
498 166 2 -0.35 8.3097358050036 0.5445678201890862 67.60554079056072 1 0 0
497 166 2 -0.35 6.191215772129337 0.17150404188042503 66.78482251181929 1 0 0
3327 1109 2 -0.35 9.7860933980735 12.008194497540575 65.8430043136056 2 -1 0
3325 1109 1 0.7 9.370322356607979 10.908416793840043 65.8596003336229 2 -1 0
5479 1827 1 0.7 8.423579095867822 3.40761015176483 69.26204483694671 -3 2 0
5249 1750 2 -0.35 5.136179367643701 7.68000872862073 71.19073118626257 2 0 0
3694 1232 1 0.7 5.470781858227677 6.992592774281792 77.47806205829639 -2 2 1
3696 1232 2 -0.35 4.660280218888786 7.824680867963845 77.41460547467987 -2 2 1
1100 367 2 -0.35 2.989274794415592 2.19574968142937 75.0240797839701 -3 3 1
5083 1695 1 0.7 0.3982279749576939 6.350109420792203 73.27922563595901 1 0 0
3920 1307 2 -0.35 8.02370404649217 2.9849994831309528 72.66661743296387 1 1 0
3919 1307 1 0.7 7.171089034037048 3.1745573224604766 73.42077670496036 1 1 0
3921 1307 2 -0.35 6.224250973018477 3.378856317784323 74.08694657198663 1 1 0
6561 2187 2 -0.35 3.7521110677015908 3.2306088919256664 70.84496804334188 0 2 1
6559 2187 1 0.7 3.584975820346947 2.3018999107233307 70.11219717545592 0 2 1
6560 2187 2 -0.35 3.323942001699388 1.3684726242600178 69.4364560436331 0 2 1
5084 1695 2 -0.35 0.70783694038502 5.414355409987987 73.88709457041377 1 0 0
3695 1232 2 -0.35 6.282814886084368 6.194859239091248 77.56077165102879 -2 2 1
6656 2219 2 -0.35 5.403005615691871 7.855575111008548 74.36221408389922 -2 -1 1
1099 367 1 0.7 3.437416346855733 3.193380473127607 75.44647069021983 -3 3 1
1101 367 2 -0.35 3.893786890040758 4.151714202976764 75.94695846121046 -3 3 1
6655 2219 1 0.7 4.447285708519704 7.269912435106533 74.0698120554671 -2 -1 1
6657 2219 2 -0.35 3.4908975352225005 6.680971572545444 73.82371893043386 -2 -1 1
5481 1827 2 -0.35 7.558949081352142 2.6972718384064325 69.6015179496122 -3 2 0
5223 1741 2 -0.35 1.6241488234576706 1.5870623933823862 72.35170565880394 1 0 0
489 163 2 -0.35 9.677214913661354 4.5172025690995 74.70880446958734 -1 -3 0
5248 1750 1 0.7 5.1095306134363305 7.576508210605983 70.02991336681448 2 0 0
2894 965 2 -0.35 7.9992916360027335 9.513064177144205 75.41301250891316 -5 5 0
2895 965 2 -0.35 9.643259746748473 9.546842954516224 73.73917981775705 -5 5 0
2893 965 1 0.7 8.834233354003384 9.514720428046171 74.6093127444024 -5 5 0
2847 949 2 -0.35 5.340115675948624 0.11534035875063707 74.29710266124745 1 3 0
5085 1695 2 -0.35 0.028146260830602902 7.219878596275336 72.61186920427423 1 0 0
1173 391 2 -0.35 1.4909720941245983 8.430717683581149 75.8018195456893 2 1 0
1817 606 2 -0.35 6.4406232061706445 0.33438481740252257 70.87513562297946 -10 15 0
1171 391 1 0.7 1.021418299245843 9.488756168110775 75.81644437383096 2 1 0
414 138 2 -0.35 9.952321745389488 0.12803605749234748 75.37135353649117 1 1 0
2409 803 2 -0.35 4.170603859432558 0.44996334725024406 77.23376216034089 0 1 0
5221 1741 1 0.7 0.48308378752099784 1.470150440013377 72.57679109996484 1 0 0
555 185 2 -0.35 0.6285023173173242 0.19735450608322394 75.3573145197273 0 1 0
488 163 2 -0.35 10.486541622098791 6.551574496988329 75.46539534833148 -1 -3 0
487 163 1 0.7 10.087087100306658 5.509213734503139 75.11985325479203 -1 -3 0
224 75 2 -0.35 10.851169369132524 1.9585978309478786 70.85397604859631 1 2 0
223 75 1 0.7 11.277944375158196 0.9060855757392114 71.05567065476521 1 2 0
1791 597 2 -0.35 14.388128517821865 8.307379635408946 74.0089686105677 2 1 0
412 138 1 0.7 10.688967487284579 0.6255564539158264 74.60664152007726 1 1 0
1291 431 1 0.7 13.914070615289287 4.724253239868273 73.83535361525585 -1 0 0
1293 431 2 -0.35 15.008878785268925 4.579432907924397 73.53178699244836 -1 0 0
1292 431 2 -0.35 12.799734671316338 4.905000948479886 74.0808181385382 -1 0 0
1789 597 1 0.7 13.625686500021335 8.814329234263969 74.74461715877325 2 1 0
4708 1570 1 0.7 17.853059124995305 8.661187420601172 75.66755967181388 0 -2 0
4709 1570 2 -0.35 17.989018729865393 9.372632398814602 76.59536676438786 0 -2 0
413 138 2 -0.35 11.480313997178618 1.074419962551606 73.8671558584187 1 1 0
6539 2180 2 -0.35 17.000300185113595 1.1385188219034315 75.1147274022534 -2 -1 0
1790 597 2 -0.35 12.795333019762218 9.310646743587807 75.35356698257857 2 1 0
1536 512 2 -0.35 15.17308778417802 8.670827278604792 76.91184121826835 1 1 0
5476 1826 1 0.7 18.497282983117508 2.303887513277098 77.09531510519183 -1 0 0
4670 1557 2 -0.35 12.005465279842003 2.3502164947960322 77.2170784750618 2 2 0
4710 1570 2 -0.35 17.83380715374185 7.956398787610759 74.75056849282326 0 -2 0
1534 512 1 0.7 14.71261122237804 7.886813592374997 77.61475382919254 1 1 0
5478 1826 2 -0.35 19.18187129630279 2.943087604925287 76.41139822091021 -1 0 0
6538 2180 1 0.7 16.30645167539158 0.28304073789019196 75.4872944935118 -2 -1 0
2302 768 1 0.7 4.298715154539869 11.026726436832302 74.89692700440709 1 1 0
2304 768 2 -0.35 3.6261441510962813 10.124183380246022 74.60175498111188 1 1 0
2303 768 2 -0.35 4.893344596769647 11.962183464121125 75.2663456714449 1 1 0
956 319 2 -0.35 8.105484965292526 18.187868358418452 71.95938514058658 0 -2 0
955 319 1 0.7 7.210111561602064 17.453254426928023 72.16424075038823 0 -2 0
957 319 2 -0.35 6.383307097136203 16.678483273479472 72.4342569204205 0 -2 0
4594 1532 1 0.7 3.6231361347638695 15.0888349490332 72.88249813431543 1 -3 1
4595 1532 2 -0.35 3.6310194725265394 14.429842613777781 71.92063639580604 1 -3 1
4596 1532 2 -0.35 3.709061850317425 15.79233130341323 73.79589518932809 1 -3 1
159 53 2 -0.35 0.6119269030046196 14.435127407621573 75.57141162556617 1 1 0
2665 889 1 0.7 5.604398175382962 13.447622717015971 77.6858862580531 0 0 1
158 53 2 -0.35 2.2890031997896805 13.025134245577444 74.79322697676042 1 1 0
157 53 1 0.7 1.449219280040974 13.735317380221607 75.13165236366977 1 1 0
3376 1126 1 0.7 8.264301935946376 13.548046533035974 74.0006190710889 -1 -4 1
3378 1126 2 -0.35 8.254589566447576 14.69101512420153 74.35003710157025 -1 -4 1
3377 1126 2 -0.35 8.152039336462174 12.484724779799333 73.64380010907662 -1 -4 1
2666 889 2 -0.35 6.622729836765631 12.90304214894122 77.50090448304567 0 0 1
6331 2111 1 0.7 0.7730308055709078 11.256631999675026 71.2802107340508 1 1 0
3923 1308 2 -0.35 5.337062983724225 18.189119352220548 75.41150024476585 2 0 0
6333 2111 2 -0.35 0.3896607700218296 12.03321062412969 70.51882117195058 1 1 0
6332 2111 2 -0.35 1.1794095281396335 10.509214148597234 72.0526066692513 1 1 0
3922 1308 1 0.7 5.378630486346305 17.110313926603997 75.81071494439992 2 0 0
3924 1308 2 -0.35 5.349652620040146 15.975403013253338 76.16222597286736 2 0 0
5123 1708 2 -0.35 0.1647854949765658 14.695120352053262 72.31924184616499 5 3 1
2595 865 2 -0.35 8.480053405431292 17.01418168945888 76.92777568217382 1 -3 0
2593 865 1 0.7 9.612474380933039 17.079615882596563 77.05189871609785 1 -3 0
1172 391 2 -0.35 0.6187619422326227 10.573281482197261 75.8200187424757 2 1 0
6527 2176 2 -0.35 0.7276891338290193 18.22083468207702 77.6691692257134 5 1 1
2996 999 2 -0.35 0.31724977530841236 19.936616525722485 70.27126718538304 -1 -1 1
4515 1505 2 -0.35 15.187652225523145 11.350347207980553 74.70338899975461 8 -16 1
476 159 2 -0.35 14.488681704579893 15.973936354635438 72.10655911305014 3 3 0
475 159 1 0.7 15.370674443733115 16.536681570781013 71.5843010256759 3 3 0
477 159 2 -0.35 16.27706353517455 16.990568894472197 70.98390055588081 3 3 0
381 127 2 -0.35 19.2371879895083 12.769501166021335 71.48448103949261 1 -1 0
379 127 1 0.7 19.331150973354724 12.335273664865573 72.59132334052889 1 -1 0
4344 1448 2 -0.35 12.202765060165738 12.732168753887201 76.56862109659336 2 -1 0
4343 1448 2 -0.35 10.61092020339413 12.720526520373879 74.91860045895079 2 -1 0
4342 1448 1 0.7 11.427123320122893 12.831879656539806 75.72542195408542 2 -1 0
3783 1261 2 -0.35 10.790066093276351 16.537772616113273 73.36884322932617 -2 0 0
6970 2324 1 0.7 11.925494900974478 12.079622118243575 72.05456832793254 3 3 0
6971 2324 2 -0.35 11.278105313038402 12.702304900479593 71.29367899335492 3 3 0
4514 1505 2 -0.35 14.823289599945223 13.613016726594495 74.42335331714332 8 -16 1
3782 1261 2 -0.35 11.578896477245536 18.60314588842946 72.67339178330504 -2 0 0
3781 1261 1 0.7 11.186854084750024 17.56452904259376 73.03528596786 -2 0 0
6972 2324 2 -0.35 12.570721001793476 11.463589569923226 72.76639943722277 3 3 0
4513 1505 1 0.7 15.00154369833399 12.476086310347316 74.56808279205055 8 -16 1
3660 1220 2 -0.35 18.506038264466717 18.741805747426305 77.31392981940857 2 5 0
1186 396 1 0.7 16.53640334896609 19.474617341184096 73.72291844354578 5 -1 1
3099 1033 2 -0.35 18.05506557483809 14.816962092585493 73.72231354434413 -6 1 1
3097 1033 1 0.7 17.394182203128132 15.6449714379482 74.15967787785324 -6 1 1
949 317 1 0.7 13.893314561051637 19.529779056777976 75.90537503395704 5 0 1
951 317 2 -0.35 13.158085020614633 18.64558763065574 75.7674295474975 5 0 1
2664 888 2 -0.35 13.467842663061314 15.406939187336741 76.19241392652863 4 -5 1
2662 888 1 0.7 14.437331722041815 15.012677280334966 76.69990163646833 4 -5 1
3098 1033 2 -0.35 16.746600771604584 16.42057101616481 74.72051794047536 -6 1 1
1188 396 2 -0.35 17.6059801388245 19.80769066753981 74.01055360706258 5 -1 1
1187 396 2 -0.35 15.490990807306755 19.103377828684103 73.41162496546929 5 -1 1
2663 888 2 -0.35 15.352597650412427 14.464637235080115 77.09799198186818 4 -5 1
380 127 2 -0.35 19.489577872821076 11.887133312822264 73.63815057921056 1 -1 0
3658 1220 1 0.7 17.414142876676728 18.306569402410783 77.3080402151535 2 5 0
3659 1220 2 -0.35 16.30775315942815 17.961089634180382 77.26356634275812 2 5 0
2594 865 2 -0.35 10.766753134204272 17.230569648955523 77.21953473067298 1 -3 0
375 125 2 -0.35 0.11405381447322513 5.253073887607544 85.57263429061467 2 3 0
3407 1136 2 -0.35 2.187444428237875 6.255139034914455 78.83524676815705 2 2 1
6599 2200 2 -0.35 2.456689511381185 1.9340821473401961 79.58551488372645 0 4 0
4228 1410 1 0.7 4.751346884827365 6.9438202525640875 85.32364257185841 0 1 0
6470 2157 2 -0.35 6.929049773925535 9.8443539214915 78.81860239787267 4 -4 0
5693 1898 2 -0.35 4.685665373922658 3.7096403651485184 79.27834406063313 -2 4 0
4229 1410 2 -0.35 4.825820180407499 7.944595096195242 85.89158386312133 0 1 0
5692 1898 1 0.7 5.577601824501706 3.172222453884518 78.76904525219263 -2 4 0
6600 2200 2 -0.35 0.4528810416210227 1.1000528373768557 78.88557480781319 0 4 0
5694 1898 2 -0.35 6.523732361009875 2.6721832113769315 78.33007505740184 -2 4 0
6598 2200 1 0.7 1.3969570721194677 1.5849956518675288 79.25732037587905 0 4 0
2458 820 1 0.7 7.166618285069331 4.390596145662428 85.63178423115976 0 1 0
3406 1136 1 0.7 1.7988630933021117 5.247667329222908 78.42227268417004 2 2 1
172 58 1 0.7 6.866404243910081 7.806548997209956 81.13218711316894 0 3 1
3408 1136 2 -0.35 1.476718783525754 4.237737257032955 77.92141993877607 2 2 1
7028 2343 2 -0.35 3.0989277088310248 2.0389714542376205 84.03196215195254 1 4 1
7018 2340 1 0.7 9.420443728179661 6.267207777979875 83.44679862429041 0 3 1
7020 2340 2 -0.35 8.348162501041388 6.713801523153462 83.44537035288494 0 3 1
3767 1256 2 -0.35 4.14521915949342 4.313019602230602 82.13276877715245 -5 0 0
3766 1256 1 0.7 2.9967925451158473 4.262277981721516 81.92459993195146 -5 0 0
3768 1256 2 -0.35 1.817458125964454 4.2514624566319394 81.83026506688472 -5 0 0
7029 2343 2 -0.35 5.009168458236549 0.7715281469565618 84.35322898394489 1 4 1
7027 2343 1 0.7 4.070969351173865 1.4227134045710386 84.21859377732243 1 4 1
174 58 2 -0.35 6.294904908162713 6.983876062726328 80.53779840678474 0 3 1
2459 820 2 -0.35 7.282325957494043 4.059427975376655 84.53861200553763 0 1 0
173 58 2 -0.35 7.498623944344169 8.639656626208243 81.66295625725218 0 3 1
114 38 2 -0.35 9.714962086966061 7.515404254940742 79.65943390300728 1 0 0
4230 1410 2 -0.35 4.72093878532916 5.968176468276378 84.69505495966482 0 1 0
4079 1360 2 -0.35 0.798364274463423 0.7730977469861727 82.14968749484075 -1 2 0
7025 2342 2 -0.35 3.6868723781109813 9.944851781402665 80.04838056494205 5 -9 1
2596 866 1 0.7 9.270248607137859 2.685440079002755 80.62324315678724 0 0 0
113 38 2 -0.35 9.306154240038374 5.57944634425227 78.37925152291504 1 0 0
112 38 1 0.7 9.51621888936176 6.562193312420122 79.0235260713799 1 0 0
2598 866 2 -0.35 8.612754858376356 3.6365874807283727 80.56250840244411 0 0 0
3679 1227 1 0.7 0.06471757065385722 9.510027447757139 80.57748960492667 3 4 0
972 324 2 -0.35 8.084166823171662 0.2557828616587656 83.69355723513941 1 -3 0
373 125 1 0.7 0.6764202688229881 4.5318089449973185 86.25515798084436 2 3 0
5477 1826 2 -0.35 17.81709435601575 1.6822827411495194 77.80695588355951 -1 0 0
26 9 2 -0.35 18.66885533752994 6.354200484619792 85.99944504581035 7 -1 0
5529 1843 2 -0.35 19.81716256878826 8.888959640091558 81.43938934315725 1 1 0
3458 1153 2 -0.35 19.03649177687185 0.28616845764194787 84.94437917839394 -1 3 0
2558 853 2 -0.35 10.347578676421254 9.048665558994658 82.82188871744299 2 2 0
2557 853 1 0.7 10.540715612144734 9.66090119031621 81.86158151306044 2 2 0
2597 866 2 -0.35 9.992518354704517 1.7722389228459534 80.71555770278702 0 0 0
2678 893 2 -0.35 12.808031729808185 6.632611692925531 85.69901605892092 0 -1 0
7019 2340 2 -0.35 10.467631531512712 5.7358928305741665 83.46840995652309 0 3 1
3051 1017 2 -0.35 17.263939946502468 5.698589121504853 79.49541037705991 3 6 1
4671 1557 2 -0.35 12.296547886725007 3.549336790434849 79.17664485546233 2 2 0
2677 893 1 0.7 12.736630592073446 5.469908700412547 85.76961784334107 0 -1 0
4669 1557 1 0.7 12.175826433290178 2.9041898219990943 78.22739272896901 2 2 0
1535 512 2 -0.35 14.227755055933189 7.1086619960133435 78.32160444570043 1 1 0
235 79 1 0.7 16.468006532975878 9.600922445275884 81.73359615621112 0 3 0
237 79 2 -0.35 15.783934327620976 8.749800250773312 81.32728956925841 0 3 0
1329 443 2 -0.35 19.752691545070185 3.8177788665385997 81.44243381240956 -3 -1 1
3050 1017 2 -0.35 19.427057546466084 6.494550563924877 79.4479946443105 3 6 1
3049 1017 1 0.7 18.340808538929807 6.118885180602768 79.43118623675097 3 6 1
6879 2293 2 -0.35 12.933476895019083 9.869741508021413 84.47876640375698 7 14 1
1523 508 2 -0.35 13.211911639002516 0.3118562213114455 79.8621981850333 0 0 0
5310 1770 2 -0.35 13.7121596153707 1.8623317799646077 82.72709684507696 -1 0 0
6837 2279 2 -0.35 17.3852775686729 2.254108854212064 83.42216354224347 -3 4 1
6835 2279 1 0.7 16.779518601632315 1.4178525286949912 83.92838026422623 -3 4 1
672 224 2 -0.35 16.950597097092587 7.059907496617872 83.38647895286842 3 -2 0
671 224 2 -0.35 15.771023988516921 5.34536416831468 84.3006947510366 3 -2 0
670 224 1 0.7 16.371156041515682 6.172217178275537 83.78131259367898 3 -2 0
5309 1770 2 -0.35 12.07779511550304 3.491078114404531 82.33763834486979 -1 0 0
5308 1770 1 0.7 12.897906399314982 2.6837047432293337 82.54195439763268 -1 0 0
6836 2279 2 -0.35 16.113278005497385 0.5386335321021036 84.34413007390543 -3 4 1
93 31 2 -0.35 14.590738091501569 5.665586076635025 81.42824011008157 1 0 0
91 31 1 0.7 13.551288551128522 6.181077898380592 81.40183869637613 1 0 0
92 31 2 -0.35 12.526466949962787 6.712912623441225 81.2659884105611 1 0 0
360 120 2 -0.35 15.81840515413874 9.371984634940473 85.21744833554197 1 2 0
2679 893 2 -0.35 12.58588726485937 4.307920629157767 85.86915674302882 0 -1 0
6877 2293 1 0.7 11.963832898814973 9.885293557045928 85.11526835287029 7 14 1
6526 2176 1 0.7 0.17061779650486095 17.247592470601855 77.94063525278447 5 1 1
3680 1227 2 -0.35 0.2607095560919917 10.083851509745918 81.56211742092748 3 4 0
5076 1692 2 -0.35 6.354046680364589 19.692607631372205 83.07585315133119 0 1 0
6471 2157 2 -0.35 8.809389693774326 11.069149207509097 78.30953864139701 4 -4 0
6557 2186 2 -0.35 0.9673238352717249 14.342426009499578 80.3863530187193 0 0 0
2667 889 2 -0.35 4.554746426818011 13.904089289074903 77.91552234414578 0 0 1
2052 684 2 -0.35 3.3113508201448094 19.572867526759122 80.60454009044086 3 0 0
7024 2342 1 0.7 3.4817912780658866 10.30305011634911 78.95190497039607 5 -9 1
4668 1556 2 -0.35 2.0713915887444627 10.195664406444667 84.09440572664693 0 -1 0
6469 2157 1 0.7 7.886824344592684 10.435248693275144 78.58590520813433 4 -4 0
6520 2174 1 0.7 0.517017888499917 15.032291262328235 84.0276713117762 2 -1 0
7026 2342 2 -0.35 3.363372667068067 10.636165354880143 77.86080898260234 5 -9 1
2135 712 2 -0.35 0.737300212122382 19.076911767070165 85.7462587240928 -1 2 0
3500 1167 2 -0.35 8.83361177322898 14.731967359830815 79.04489029304294 1 1 0
978 326 2 -0.35 3.485751869269148 17.275942782284698 85.77738278485454 -4 7 1
6521 2174 2 -0.35 0.5941975535651038 14.130789710307008 83.26526374340547 2 -1 0
431 144 2 -0.35 3.0358732452483994 14.388521996419492 85.25232492675298 2 0 0
1625 542 2 -0.35 8.47242633739246 11.537848972764257 83.13269069784683 -1 -2 1
2292 764 2 -0.35 3.027176912571981 16.48641591905354 80.18877018578317 1 1 0
2290 764 1 0.7 2.5324108162378884 16.500477041147384 81.23591289901158 1 1 0
430 144 1 0.7 4.1939652365464 14.174468005338989 85.25058890562569 2 0 0
432 144 2 -0.35 5.309285709051476 13.95220478293215 85.16109971020988 2 0 0
2492 831 2 -0.35 5.006468973045418 18.14144884281339 78.53020342596048 1 0 0
6556 2186 1 0.7 0.7618397926879505 13.394360675346686 79.72625497800831 0 0 0
6558 2186 2 -0.35 0.6076129477929288 12.407192042027775 79.12326002597648 0 0 0
2493 831 2 -0.35 6.00914081244492 16.170495520133134 79.33251284348049 1 0 0
4667 1556 2 -0.35 3.0556556241669064 11.616140509665449 82.55704096461872 0 -1 0
2491 831 1 0.7 5.478865443187296 17.157178181178523 78.88670597847687 1 0 0
4666 1556 1 0.7 2.593318563009073 10.885570017240294 83.34689922894523 0 -1 0
1626 542 2 -0.35 6.47409807311414 10.61114627955021 83.90546855747229 -1 -2 1
1624 542 1 0.7 7.48461041866573 11.050005647863458 83.51757587019902 -1 -2 1
6942 2314 2 -0.35 6.824832052672995 17.121240717628822 84.4573576180315 0 2 0
3501 1167 2 -0.35 7.483480449333521 13.665473217624024 80.58539516033241 1 1 0
3499 1167 1 0.7 8.132088961780655 14.155810031729768 79.77880152538285 1 1 0
2828 943 2 -0.35 4.737339168192677 12.962831691966308 80.52393610756776 -1 0 0
2827 943 1 0.7 4.596064109192328 13.777011701118651 81.35942413125366 -1 0 0
2829 943 2 -0.35 4.522377986694864 14.594008499640118 82.18339850109356 -1 0 0
6940 2314 1 0.7 6.6928166679509005 16.567115803757943 85.46558548747359 0 2 0
3575 1192 2 -0.35 7.936663363756562 17.642857734382446 81.20647694127848 1 0 0
3574 1192 1 0.7 8.741003286688931 17.2455905096521 81.9877686141034 1 0 0
5786 1929 2 -0.35 4.038740922460837 11.685728896115304 86.2096085293975 2 1 0
2291 764 2 -0.35 2.002063927162016 16.551198887410134 82.27981860995332 1 1 0
6522 2174 2 -0.35 0.43632060531145794 15.90721437955435 84.80336237070469 2 -1 0
3576 1192 2 -0.35 9.525397131915595 16.792826616134306 82.73508650500867 1 0 0
2224 742 1 0.7 9.2804676753578 13.907860393945153 84.69121612145699 3 3 0
2225 742 2 -0.35 8.313278460588887 14.385592503502362 84.24862687525527 3 3 0
5075 1692 2 -0.35 4.425636740043092 19.850986088464616 84.34196732251769 0 1 0
5074 1692 1 0.7 5.357608140262597 19.809972057173837 83.72132044683048 0 1 0
6878 2293 2 -0.35 11.077064895073645 10.012302999173667 85.86186768605901 7 14 1
1401 467 2 -0.35 16.28928918780212 19.642393695750844 86.31329297989721 -3 -1 0
4041 1347 2 -0.35 18.175042636885447 15.543685112639423 85.7126471349183 -1 -2 -1
3275 1092 2 -0.35 13.049168082195514 10.199346643108187 78.65217425558258 1 1 0
1377 459 2 -0.35 12.19729574874231 15.469844395761408 85.87920610292291 1 0 0
754 252 1 0.7 18.110053644871613 19.191954417013136 81.80047762745977 1 -1 0
6908 2303 2 -0.35 11.925182580371438 19.527769284584206 79.26866321688098 5 1 0
2559 853 2 -0.35 10.851470563547913 10.225298816588502 80.91337930455693 2 2 0
4039 1347 1 0.7 17.264576473986306 16.113753586263464 85.23060484785478 -1 -2 -1
2273 758 2 -0.35 11.24205326651074 14.272726341198572 81.01933522326753 1 -1 0
2544 848 2 -0.35 14.470832129168576 12.532035087704106 83.17776862078986 -2 0 0
2743 915 1 0.7 12.872277621181059 19.12821831044627 84.68664619458427 -1 -1 1
2542 848 1 0.7 15.410203064729266 12.859372930896956 83.79705270963481 -2 0 0
2226 742 2 -0.35 10.259366579922558 13.425115176987541 85.08628693112038 3 3 0
649 217 1 0.7 18.98726980252014 11.847566458766977 85.99983283623703 1 1 0
236 79 2 -0.35 17.27863379688656 10.332944138148527 82.08548143425573 0 3 0
2016 672 2 -0.35 19.585577160079858 14.54471979260154 81.91145171665242 -1 1 0
3276 1092 2 -0.35 12.969696452650517 11.901599577476524 80.27129576465816 1 1 0
3274 1092 1 0.7 13.022717862309465 11.028935039220023 79.47801435037664 1 1 0
180 60 2 -0.35 17.46516293264479 16.453394637132327 80.51586498408537 0 1 0
1376 459 2 -0.35 13.212669395007461 15.663696183469506 83.81996498412384 1 0 0
6618 2206 2 -0.35 12.7288584372336 18.06841731439481 81.82166827540631 0 2 0
4040 1347 2 -0.35 16.335084952965083 16.741861079435147 84.88925603474979 -1 -2 -1
1375 459 1 0.7 12.693637403614115 15.5651856600167 84.8536875946277 1 0 0
4017 1339 2 -0.35 18.859154346813746 14.140238927731712 78.76613001482396 11 -6 -1
6617 2206 2 -0.35 14.852340348878787 17.56523459678518 81.06484006235532 0 2 0
2274 758 2 -0.35 12.978962923015008 14.867811682037528 79.58544425125228 1 -1 0
2543 848 2 -0.35 16.352887276954775 13.156846466646655 84.41779741334372 -2 0 0
178 60 1 0.7 16.80828585048617 15.715502765252927 81.1044455255102 0 1 0
179 60 2 -0.35 16.094301856744476 14.993988338347734 81.67363995790933 0 1 0
4016 1339 2 -0.35 17.8418804194486 12.058381916841494 78.86689411654939 11 -6 -1
4015 1339 1 0.7 18.471653276329214 13.051997728845004 78.82864063446058 11 -6 -1
6616 2206 1 0.7 13.776137460676573 17.79566991574505 81.39918584389106 0 2 0
756 252 2 -0.35 18.05033896021928 18.81199337404164 82.91729004716738 1 -1 0
2745 915 2 -0.35 12.202939600190032 18.270287097049966 85.11495305531139 -1 -1 1
2272 758 1 0.7 12.125978385117811 14.555696256442026 80.31147701604462 1 -1 0
2744 915 2 -0.35 13.676525388963906 19.914640413296013 84.39062643202584 -1 -1 1
755 252 2 -0.35 18.250955446565552 19.576840164303555 80.72461434078997 1 -1 0
2877 959 2 -0.35 6.851055341443195 2.41717910456857 101.80692803589136 -1 0 0
3306 1102 2 -0.35 2.3855125595882565 4.531699895780125 100.83479133947816 -2 1 0
3304 1102 1 0.7 2.0676952422319395 5.22233085669375 99.963898362799 -2 1 0
3305 1102 2 -0.35 1.6570170811545581 5.872142016736332 99.11268360056997 -2 1 0
2875 959 1 0.7 6.031448091613321 2.020755335832513 101.10103526270419 -1 0 0
2876 959 2 -0.35 5.157070882669233 1.6044359778151096 100.4891023058691 -1 0 0
5338 1780 1 0.7 1.8920723212711508 0.9152516821012835 99.10755263884722 0 2 0
374 125 2 -0.35 1.1761270048398005 3.772994258330318 86.92010799734805 2 3 0
4958 1653 2 -0.35 2.4884228472351277 4.012138363770075 96.16569589767175 2 0 0
4957 1653 1 0.7 3.197162281986338 4.241003788760492 97.06271438773386 2 0 0
4959 1653 2 -0.35 3.9268339310686025 4.531764925766069 97.9158978072331 2 0 0
516 172 2 -0.35 7.026618107402747 7.630781163530007 88.07556602279902 0 3 0
3310 1104 1 0.7 3.34774415459317 5.860770423586117 93.74627747029555 1 0 1
3312 1104 2 -0.35 3.70880492638435 6.855683141498194 94.2303745621801 1 0 1
3311 1104 2 -0.35 3.0068471909773 4.83275872371539 93.30498930888153 1 0 1
6914 2305 2 -0.35 2.2598557458160045 1.579144550129846 90.1839488406446 0 1 0
1348 450 1 0.7 1.345450754187525 7.7593037834544765 97.04195394846477 -1 1 0
6913 2305 1 0.7 1.8254399060201567 1.9255181012227585 91.20394321662015 0 1 0
4244 1415 2 -0.35 3.989678328496602 7.318513719596629 100.3102299594321 -1 -1 0
5339 1780 2 -0.35 2.267517633806195 1.8943510613080548 98.53729690557053 0 2 0
4243 1415 1 0.7 4.569579409409153 7.4117236698763715 99.325422234635 -1 -1 0
1810 604 1 0.7 4.800295629381635 3.875246252008351 88.50563330627777 -2 10 0
514 172 1 0.7 6.045092954633588 7.887814708449792 88.61646917050585 0 3 0
1349 450 2 -0.35 1.7464238614710483 6.956675501051142 96.29856438437929 -1 1 0
5739 1913 2 -0.35 5.084091303598947 2.4952838857540813 95.14860871698627 3 4 0
1811 604 2 -0.35 4.86049503300931 4.733683462241712 89.27639738772538 -2 10 0
2255 752 2 -0.35 0.6215498175979275 1.8613131384702908 95.0041839218504 1 0 0
4245 1415 2 -0.35 5.0775854806380565 7.564553803627789 98.30309410454956 -1 -1 0
5737 1913 1 0.7 4.940598641147904 1.425305378270427 94.714801365028 3 4 0
5738 1913 2 -0.35 4.925113473345971 0.3100025000688263 94.3913072654482 3 4 0
1815 605 2 -0.35 6.813839415056129 9.433343870101421 96.35729915330809 -1 0 0
6915 2305 2 -0.35 1.4371503362179587 2.3888142233051046 92.18862795819084 0 1 0
1813 605 1 0.7 7.096252557417286 8.305327498702749 96.53664972558119 -1 0 0
3468 1156 2 -0.35 9.5201613136792 8.539013463653383 94.3166824890701 1 3 -1
1814 605 2 -0.35 7.4998845353303185 7.253252581095229 96.77103851295747 -1 0 0
1812 604 2 -0.35 4.78377573850726 3.0251397295508653 87.69627963591124 -2 10 0
4326 1442 2 -0.35 7.800514478110797 7.695160308108423 91.27400230025859 0 0 0
2422 808 1 0.7 7.2849880215251055 4.532216298510644 94.74452708746273 0 1 0
2424 808 2 -0.35 6.685906999504189 5.35044784265334 94.18013227903447 0 1 0
515 172 2 -0.35 5.055394131732834 8.18396347923837 89.1577306515007 0 3 0
5045 1682 2 -0.35 1.7902462408832953 9.726354553613843 90.88717688526351 1 -6 0
4324 1442 1 0.7 8.440017814107888 6.821112268256192 91.61903180821545 0 0 0
3912 1304 2 -0.35 8.52114848014811 4.837227993544478 89.32362771071334 1 -1 0
2534 845 2 -0.35 2.4016397587091305 9.853596325132463 87.70705784018512 1 3 0
1350 450 2 -0.35 0.8828091759325113 8.568618840840557 97.76638357729951 -1 1 0
3910 1304 1 0.7 9.254770163834367 5.295697108000448 88.52812635774703 1 -1 0
2254 752 1 0.7 0.013905590057324209 2.776682750920073 94.67865541874119 1 0 0
1826 609 2 -0.35 8.383408488224418 7.160580670003052 100.98967068309304 3 4 -1
1298 433 2 -0.35 7.561171514889101 3.9300325289938147 99.23646868070624 0 -3 0
4325 1442 2 -0.35 9.072412892249067 5.935857564660524 92.00821008067012 0 0 0
2535 845 2 -0.35 2.0948284318008428 7.750563515727478 86.8211707537229 1 3 0
2423 808 2 -0.35 7.893292670574911 3.7273887172072246 95.29859522557258 0 1 0
2533 845 1 0.7 2.1706335248909077 8.811390754149787 87.2838413615553 1 3 0
1825 609 1 0.7 8.988738849582496 8.067610959884465 101.34308527785048 3 4 -1
5530 1844 1 0.7 1.3577877507939786 6.21280028640439 90.68895992435458 1 0 0
3942 1314 2 -0.35 8.347382916336562 0.49756976966992705 98.56526950519348 0 0 0
1827 609 2 -0.35 9.57278029371042 9.007517476496197 101.7097300796867 3 4 -1
5742 1914 2 -0.35 7.875265642597614 0.27161928194778945 94.07692199959803 -2 1 0
5531 1844 2 -0.35 2.3049758662721693 6.1661986432593 89.98097192692472 1 0 0
3335 1112 2 -0.35 9.518203590012543 2.664892943181404 86.33610681218269 1 0 1
1297 433 1 0.7 8.600920062915039 4.393125281865143 99.45192832429325 0 -3 0
1299 433 2 -0.35 9.658965961978272 4.777227920064423 99.62363882847654 0 -3 0
3911 1304 2 -0.35 9.94126480959395 5.704968219817691 87.73495482369543 1 -1 0
2460 820 2 -0.35 6.968898586920077 4.682988324306231 86.74085658132847 0 1 0
5340 1780 2 -0.35 1.540437000004441 0.039682491049759204 99.7888203826362 0 2 0
5532 1844 2 -0.35 0.39710586293808664 6.169246213409113 91.36040112650927 1 0 0