LAMMPS data file via write_data, version 29 Aug 2024, timestep = 200000, units = real

7050 atoms
2 atom types
4700 bonds
1 bond types
2350 angles
1 angle types

0 40 xlo xhi
0 40 ylo yhi
0 240 zlo zhi

Masses

1 12.0107
2 15.9994

Pair Coeffs # lj/cut/coul/long/omp

1 0.0536545 2.8
2 0.156989 3.05

Bond Coeffs # harmonic/omp

1 1028.27 1.16

Angle Coeffs # harmonic/omp

1 55.96 180

Atoms # full

1826 609 2 -0.35 14.612610816463285 6.0201029802184305 35.538802758058964 1 1 0
1825 609 1 0.7 13.983064578402667 5.519729409433278 36.40251304116095 1 1 0
1827 609 2 -0.35 13.250604953833722 5.115146325146455 37.23011517570404 1 1 0
6968 2323 2 -0.35 14.101427519112184 11.980636218716521 48.04641725340625 -2 8 0
6967 2323 1 0.7 14.512366441405627 11.109699328747784 48.688287826177906 -2 8 0
6969 2323 2 -0.35 14.866586111229289 10.206672283875198 49.36246910013479 -2 8 0
305 102 2 -0.35 13.637003256673745 10.607260803972194 42.19816744127231 0 0 0
304 102 1 0.7 13.369255110229046 11.75001020907059 42.348087826952295 0 0 0
306 102 2 -0.35 13.152074228167978 12.905949324388153 42.39647197638171 0 0 0
4330 1444 1 0.7 5.888073708077313 8.778779699287982 75.67886885332591 1 0 0
5520 1840 2 -0.35 1.4919467389322296 5.7609921280036325 75.29788247396311 1 1 0
4331 1444 2 -0.35 5.259713239590999 9.72643457700913 75.64900774375376 1 0 0
5518 1840 1 0.7 2.166080546297768 6.449680545703741 74.64548824685315 1 1 0
5519 1840 2 -0.35 2.816773764179996 7.215695594877704 74.05677322518903 1 1 0
4332 1444 2 -0.35 6.551918457361687 7.826213132637239 75.6773795857531 1 0 0
597 199 2 -0.35 14.719286718239424 4.5420366578794455 94.98438233359443 0 0 0
3661 1221 1 0.7 5.480500102507695 5.424308253437552 77.24197977459784 1 0 0
7007 2336 2 -0.35 2.3044175797507944 7.9555757170325725 77.31208774135925 2 1 1
3663 1221 2 -0.35 4.4802402903416665 5.669295917677054 76.71499228148156 1 0 0
4259 1420 2 -0.35 2.939373053132914 3.1933134028701957 77.65579077804374 1 0 0
4258 1420 1 0.7 1.8709408648384673 3.04973462534512 77.22702002185444 1 0 0
4260 1420 2 -0.35 0.7956999261685149 2.878536898906769 76.83287163737853 1 0 0
86 29 2 -0.35 12.840694961922567 1.1262059172731012 75.46833739399843 0 1 0
3481 1161 1 0.7 14.150138177093545 5.1485775568532635 77.15655875816245 1 0 0
3483 1161 2 -0.35 13.165860539377372 4.621128493488047 77.50168907448949 1 0 0
794 265 2 -0.35 13.539634804021148 2.590368004342027 72.7930291079238 0 0 0
793 265 1 0.7 12.932051172488066 3.253523707968442 73.54405766717325 0 0 0
795 265 2 -0.35 12.452139670370098 3.8991028555607454 74.38201961527886 0 0 0
5259 1753 2 -0.35 15.378826249167377 7.383539703015975 72.96228386961783 0 1 0
5257 1753 1 0.7 15.866920494614725 6.352541374515077 73.25292658497467 0 1 0
5258 1753 2 -0.35 16.231962201794463 5.304019503189066 73.58961292939249 0 1 0
1924 642 1 0.7 17.967577544473702 5.949938253928582 69.67210157993289 0 1 0
1926 642 2 -0.35 18.671827746673387 5.9228380147895106 68.71547092260074 0 1 0
5229 1743 2 -0.35 18.213725330763594 2.9539208606746303 76.0635936968323 0 1 0
5227 1743 1 0.7 17.39548995651434 2.1518404662152317 76.30550378096396 0 1 0
1925 642 2 -0.35 17.228083405136097 5.903013578097468 70.57911904763085 0 1 0
6984 2328 2 -0.35 4.562291836633555 17.76324461361757 88.93671815054546 1 -2 1
3482 1161 2 -0.35 15.084418799615287 5.712094759137515 76.73583752468096 1 0 0
1804 602 1 0.7 17.91019449828361 7.102065407026101 78.03526673768475 0 1 0
1806 602 2 -0.35 18.47569624719057 7.512963069719767 77.11397952808623 0 1 0
6971 2324 2 -0.35 12.423799732869597 0.06113212910509227 71.10188413413209 1 1 0
5997 1999 2 -0.35 9.586626390495892 4.737015736029187 78.43204169428054 1 1 0
5228 1743 2 -0.35 16.50891980965515 1.4067846432260354 76.36204234401515 0 1 0
32 11 2 -0.35 5.39879186356301 12.765710430323123 77.1356179445961 1 1 0
4156 1386 1 0.7 8.99590007690741 11.866520398642583 75.15377164976326 1 0 0
4158 1386 2 -0.35 9.035684965664657 11.313427490731751 76.18732839693428 1 0 0
43 15 1 0.7 1.3942047261989141 18.3183140561097 78.13294907421947 1 0 0
45 15 2 -0.35 2.502739779724309 18.045833137083434 78.3910512868218 1 0 0
4157 1386 2 -0.35 8.99926660836505 12.377059900470304 74.12390171447504 1 0 0
83 28 2 -0.35 14.563139605927839 12.439426883751397 77.01486393635734 0 0 0
82 28 1 0.7 15.544774379775987 11.835289180200006 77.1678603817498 0 0 0
5 2 2 -0.35 19.18229880022547 18.93690712428695 77.62458635755233 0 0 0
4 2 1 0.7 18.09388543250733 19.20795603521276 77.8508730979253 0 0 0
84 28 2 -0.35 16.585535739094112 11.284630973836514 77.25343280311614 0 0 0
5279 1760 2 -0.35 11.976477307906695 10.223681331035205 77.61917856120147 1 0 0
723 241 2 -0.35 10.095833684413494 7.075582399112207 93.74248358113755 0 0 0
1797 599 2 -0.35 8.85398445877216 1.6865187959238315 78.35461183265143 0 1 0
3662 1221 2 -0.35 6.487940425367658 5.279720923782495 77.80644553086346 1 0 0
5357 1786 2 -0.35 0.60409631049602 7.427955437236409 84.06656107472287 1 1 0
5995 1999 1 0.7 9.388346974655837 5.886647579465682 78.45991382290129 1 1 0
5996 1999 2 -0.35 9.094325407632837 7.043694333937926 78.53214862032237 1 1 0
1795 599 1 0.7 7.952498211874438 1.9370723427407515 79.06009164718157 0 1 0
7022 2341 2 -0.35 6.414696582607244 8.28081689816024 81.21301305652995 0 1 1
1796 599 2 -0.35 7.034147759699261 2.094275871255266 79.72665097557788 0 1 0
7021 2341 1 0.7 6.002385025467213 8.072365840758328 80.12298741555401 0 1 1
7023 2341 2 -0.35 5.679297176783358 7.811464621229169 79.03934081149201 0 1 1
94 32 1 0.7 3.7478976094148604 4.726013894412638 80.6473243801414 0 0 0
220 74 1 0.7 4.423004884578585 0.3927922605710321 78.9338166443401 0 0 0
96 32 2 -0.35 2.9012621296279684 3.952504754511548 80.76263454024335 0 0 0
95 32 2 -0.35 4.665750788774473 5.386914857263959 80.3470089340482 0 0 0
221 74 2 -0.35 5.1462415881259025 0.21423809007891373 78.05815144364297 0 0 0
222 74 2 -0.35 3.7322233168255305 0.5240104395081057 79.83457586167758 0 0 0
5979 1993 2 -0.35 7.120819286160769 2.0417187152463216 83.83101781286776 1 1 0
5977 1993 1 0.7 7.0751918351553735 2.6661557248251593 84.80811141231277 1 1 0
93 31 2 -0.35 8.627795036344324 5.210776379642659 80.95699880124391 0 0 0
91 31 1 0.7 7.661527552646391 4.883813581733105 81.53933472226821 0 0 0
428 143 2 -0.35 4.635975068336556 6.016287768085446 85.10886648678172 1 0 0
92 31 2 -0.35 6.820234316750935 4.565899397697981 82.26374972956728 0 0 0
427 143 1 0.7 4.302528115104048 6.4741213574332255 84.10817387478252 1 0 0
7008 2336 2 -0.35 2.1412942028599993 6.3651626705812365 78.98204156629586 2 1 1
7006 2336 1 0.7 2.2131157379379385 7.179770495911577 78.18253795741721 2 1 1
429 143 2 -0.35 3.8915388301890386 6.944653480572799 83.13570966855092 1 0 0
5226 1742 2 -0.35 4.486877901208647 1.8630827437401831 82.65854023262942 1 1 0
5605 1869 1 0.7 0.7512701127688336 0.49055947673746314 81.69342957429076 1 1 0
5316 1772 2 -0.35 8.432990172277181 9.825348564937538 84.19345509607251 1 1 0
4016 1339 2 -0.35 3.895860356943782 9.705145626233811 84.62188656104018 1 0 0
5607 1869 2 -0.35 1.352089949166272 0.1766434930771283 82.6629385509549 1 1 0
5522 1841 2 -0.35 1.6181651676474318 5.676184104498674 87.86950629014206 1 1 0
5224 1742 1 0.7 4.568297010882223 0.706227645543759 82.63303295811765 1 1 0
3947 1316 2 -0.35 0.9462192285895659 13.707659427590322 93.6462004069029 1 0 0
5356 1786 1 0.7 0.7550790647828676 6.990474043488812 82.98458554964346 1 1 0
3461 1154 2 -0.35 11.780238196182772 19.31953883127584 73.6310094944158 1 0 0
5606 1869 2 -0.35 0.10783032602423956 0.6802100176148173 80.71564854770412 1 1 0
5691 1897 2 -0.35 0.6137932528587364 0.6520376286334435 85.67669735521824 1 1 0
5358 1786 2 -0.35 0.8719505639038045 6.635956548996356 81.88056529544257 1 1 0
440 147 2 -0.35 16.50666746052677 13.321710636089437 93.97262596292838 0 0 0
5280 1760 2 -0.35 12.593973206038719 8.276025288691146 78.71317342790526 1 0 0
5458 1820 1 0.7 0.5646148073405115 3.0315111889165953 91.01452759605117 1 1 0
483 161 2 -0.35 11.824522742152597 5.409979411038285 80.4276991292792 0 0 0
441 147 2 -0.35 18.61752177155145 12.751433613330583 94.65712012032031 0 0 0
51 17 2 -0.35 9.799297353265818 8.358459603625409 81.62302248841719 0 0 0
5635 1879 1 0.7 13.48955281339286 0.7615697212320207 78.78352544777562 1 1 0
5636 1879 2 -0.35 14.114186544681143 1.7293408226262355 78.82454444038441 1 1 0
482 161 2 -0.35 12.089797834730767 3.155971371478679 80.05959134009666 0 0 0
1805 602 2 -0.35 17.392891740343963 6.664841976250048 78.99335089043586 0 1 0
201 67 2 -0.35 16.1774808793701 7.98936650642262 81.78291979003629 0 0 0
481 161 1 0.7 12.000668853214423 4.299793692706794 80.22860225756176 0 0 0
199 67 1 0.7 15.648581415112865 6.977311153070489 81.74610135034597 0 0 0
200 67 2 -0.35 15.07909601473143 5.966799354137948 81.63665563733359 0 0 0
50 17 2 -0.35 12.100308873760186 8.08425011400113 81.75999061856892 0 0 0
1823 608 2 -0.35 15.366199892483879 3.0149659162686127 81.04884233327479 0 1 0
5250 1750 2 -0.35 10.44443466156592 3.6329789282948495 82.79514056808947 1 1 0
1824 608 2 -0.35 16.783821005071307 3.510787462382674 79.22311280050549 0 1 0
1822 608 1 0.7 16.059490963253086 3.278590057302089 80.10799248084149 0 1 0
5392 1798 1 0.7 18.815794805421515 6.714123208574705 81.52005086684807 1 1 0
5393 1798 2 -0.35 19.363037594531935 7.662300010452423 81.15488804674982 1 1 0
5394 1798 2 -0.35 18.228714124745135 5.803369415742523 81.91471461944566 1 1 0
3473 1158 2 -0.35 16.197565903243003 4.544265420408484 84.1983889647051 1 0 0
2197 733 1 0.7 14.282649439973891 7.065835970421941 85.32129048517788 0 1 0
2198 733 2 -0.35 14.924795565160656 7.633738586356658 84.54340825643162 0 1 0
3472 1158 1 0.7 15.944739817374549 3.4340389853722764 84.15909992669523 1 0 0
49 17 1 0.7 10.955621175348696 8.267641980021388 81.673596037668 0 0 0
509 170 2 -0.35 17.028065853310306 9.902190743759432 84.40234657395536 0 0 0
2199 733 2 -0.35 13.646658194820063 6.463359165700463 86.08588186243206 0 1 0
2503 835 1 0.7 18.117622725270582 8.012774108157082 86.4621517035511 0 1 0
2504 835 2 -0.35 17.39054424570083 7.110448942742607 86.29064800455566 0 1 0
2468 823 2 -0.35 9.096529487407686 6.188088750355629 84.09305470140355 0 1 0
2467 823 1 0.7 9.95696084157013 6.841811128526474 84.46841425187152 0 1 0
2505 835 2 -0.35 18.795389167803542 8.929343712069828 86.58444887860897 0 1 0
3474 1158 2 -0.35 15.779545967425745 2.2745056014434786 84.19348732313247 1 0 0
3845 1282 2 -0.35 19.374844568673055 9.15084945181389 90.10306782032832 0 0 0
5516 1839 2 -0.35 18.810082315438812 12.688104920461383 85.30631905415036 1 1 0
5460 1820 2 -0.35 0.9539773065084062 4.113531150575492 91.17137483314329 1 1 0
5248 1750 1 0.7 11.53480675403677 3.778476945996042 83.17456706706876 1 1 0
5249 1750 2 -0.35 12.593826729579627 3.98560134389865 83.61941858786624 1 1 0
3405 1135 2 -0.35 19.123655744065054 1.567180546706835 21.283038679414293 -2 -1 1
5289 1763 2 -0.35 19.284578709818938 2.1110260427327847 82.73840604003915 0 1 0
2469 823 2 -0.35 10.822875798268882 7.4658116541035895 84.82861746317712 0 1 0
31 11 1 0.7 4.9644744667484675 11.88450134415206 77.76954806921387 1 1 0
5459 1820 2 -0.35 0.2019980889897763 1.9305935345101297 90.9718212671846 1 1 0
202 68 1 0.7 17.600940892823914 14.458314178650111 87.3286203412988 0 0 0
489 163 2 -0.35 18.407162778311562 17.062699550101758 83.02234154500619 0 0 0
33 11 2 -0.35 4.544436962319981 11.051906258822195 78.41831293230636 1 1 0
3648 1216 2 -0.35 7.7172330717745385 11.057915848677025 78.9447307451145 1 0 0
3646 1216 1 0.7 8.795199801958367 10.827840133776137 79.18541552816842 1 0 0
6992 2331 2 -0.35 5.323297682260252 13.080151674018879 82.85454886944721 0 -1 1
6991 2331 1 0.7 5.548504406912279 13.508319214912849 81.78370279334885 0 -1 1
6993 2331 2 -0.35 5.849566873391703 13.925145706761196 80.76067325907691 0 -1 1
5314 1772 1 0.7 8.194179621841771 10.588521814890875 83.37463964713508 1 1 0
79 27 1 0.7 5.464018580429343 17.943032269133013 83.1254674180079 0 0 0
3900 1300 2 -0.35 8.590620161416282 16.049342829022756 80.94834527577227 1 0 0
3898 1300 1 0.7 8.626566663374058 15.086531638321771 80.30202780365539 1 0 0
3510 1170 2 -0.35 5.745347951020031 12.155207447258242 85.95307176654013 1 0 0
3899 1300 2 -0.35 8.735047621292976 14.02947051278012 79.80315299249098 1 0 0
101 34 2 -0.35 8.354347837520526 17.320013900668886 83.858416661856 0 0 0
100 34 1 0.7 8.800730322631242 16.247295336505857 83.88434546529392 0 0 0
102 34 2 -0.35 9.414746743377975 15.259422085110854 83.85962430772503 0 0 0
3508 1170 1 0.7 6.621540125866179 12.752929735000542 85.45657770516912 1 0 0
3509 1170 2 -0.35 7.481981527880307 13.321770664937508 84.9752255074685 1 0 0
81 27 2 -0.35 5.682299042755487 16.79000360044597 83.28176130599239 0 0 0
3546 1182 2 -0.35 2.214902516810231 10.97580402239059 82.68380859612466 1 -2 0
6954 2318 2 -0.35 2.9990413757079186 16.181466913264444 80.7325012767065 -3 -1 0
4015 1339 1 0.7 3.3015213962642536 10.41598492680081 85.34120286376523 1 0 0
6952 2318 1 0.7 3.722871168224295 17.08089665191386 80.69449324232737 -3 -1 0
6953 2318 2 -0.35 4.430713176919667 17.971809486549045 80.57732353117045 -3 -1 0
3544 1182 1 0.7 2.4150258102884385 10.029428034103114 82.02411438344976 1 -2 0
6986 2329 2 -0.35 2.5595427302950786 15.61906721687028 85.9009415671349 0 -1 1
3545 1182 2 -0.35 2.686804413267555 9.110152914305274 81.37428788421238 1 -2 0
4017 1339 2 -0.35 2.6917436766068175 11.122423090189999 86.05186838837098 1 0 0
3598 1200 1 0.7 1.4736610357093094 17.944086770784434 83.95184148063798 1 0 0
6985 2329 1 0.7 3.5415821806323167 15.421898960932579 86.50860142696571 0 -1 1
5315 1772 2 -0.35 7.950811127635094 11.30322050168046 82.51694880646538 1 1 0
3600 1200 2 -0.35 2.487621072032696 17.777498381294897 83.42041499600329 1 0 0
80 27 2 -0.35 5.24649309416548 19.0555278201011 82.99236611675285 0 0 0
5278 1760 1 0.7 12.309861266186289 9.22210160503268 78.08517612652905 1 0 0
2562 854 2 -0.35 14.387826287942483 18.7594358982791 75.93232929255763 1 0 0
2560 854 1 0.7 14.08322063796086 19.404996273307002 76.84617967393741 1 0 0
508 170 1 0.7 17.681034122718835 10.057909142927716 83.47436570964682 0 0 0
487 163 1 0.7 18.778712314269942 18.05018313183938 82.5267710816026 0 0 0
117 39 2 -0.35 12.051200808861005 14.166992442771695 79.0273430084298 0 0 0
341 114 2 -0.35 11.701110509417568 10.734120476062728 82.91038526514735 0 0 0
1758 586 2 -0.35 15.041266248005831 10.459134898094213 79.82609027460124 0 0 0
3647 1216 2 -0.35 9.87139197597427 10.641697024395459 79.52953538922085 1 0 0
6980 2327 2 -0.35 12.101253621960861 16.316487357544705 81.10978524087773 2 -4 1
702 234 2 -0.35 12.349534761361651 14.250879753154136 84.12383727343392 0 0 0
700 234 1 0.7 12.378578740889996 15.372172941462807 84.35267826706276 0 0 0
116 39 2 -0.35 13.008955524322827 12.354659056740543 80.14762421649067 0 0 0
340 114 1 0.7 12.818323385226764 11.03680514268509 82.95052545594565 0 0 0
115 39 1 0.7 12.519872238172205 13.263021151005695 79.57429458932532 0 0 0
342 114 2 -0.35 13.957009099004605 11.272124467249858 82.96510170735765 0 0 0
701 234 2 -0.35 12.342119727933625 16.51070706554678 84.50300961622555 0 0 0
6979 2327 1 0.7 12.54515916253639 16.739280381388156 80.14275148595283 2 -4 1
6981 2327 2 -0.35 13.01869422470059 17.14284793258885 79.14906321223916 2 -4 1
1757 586 2 -0.35 16.51693580149136 11.799987911704227 80.94108467410659 0 0 0
7017 2339 2 -0.35 18.41573086496802 14.357111420667996 80.90776021361734 -2 2 1
1761 587 2 -0.35 15.077775552023983 14.634037516921994 79.36363696992913 0 0 0
510 170 2 -0.35 18.32933935630968 10.123489096278542 82.506415869011 0 0 0
1759 587 1 0.7 15.415576193769667 15.739226869844316 79.3202903042495 0 0 0
1756 586 1 0.7 15.794028529703656 11.102591052376528 80.38010691143171 0 0 0
1760 587 2 -0.35 15.872562283924026 16.795239113379044 79.31693335744235 0 0 0
7015 2339 1 0.7 18.680744067752965 13.568483644089891 80.08886374209588 -2 2 1
1998 666 2 -0.35 15.54180381395006 15.243650633770526 82.18514766639959 0 0 0
1996 666 1 0.7 15.896161031812495 14.337458884615106 82.8301602688504 0 0 0
16 6 1 0.7 15.654279850791804 18.166471788616533 85.09948996400064 0 0 0
1997 666 2 -0.35 16.205567377532024 13.461346495607492 83.51301611965856 0 0 0
18 6 2 -0.35 15.183863905011474 17.135842920581347 85.18910896347018 0 0 0
17 6 2 -0.35 16.161235886745324 19.21141369852494 84.99113020007076 0 0 0
479 160 2 -0.35 14.601606958818367 13.178695972662293 86.2178874328337 0 0 0
2006 669 2 -0.35 0.9091507187178616 13.920963623476004 77.9957926748571 1 1 0
7016 2339 2 -0.35 18.97976503141075 12.757770373999806 79.34086003498116 -2 2 1
38 13 2 -0.35 10.12924426226133 17.387044066240247 90.06183209001168 0 0 0
6036 2012 2 -0.35 19.18693180200318 5.989411695716161 88.52664857697877 1 1 0
90 30 2 -0.35 11.595835036249419 14.876284933830384 86.83556121881206 0 0 0
3599 1200 2 -0.35 0.4455244654628189 18.143562259160653 84.42583252785938 1 0 0
5978 1993 2 -0.35 7.151641327906244 3.2551571089834503 85.8194264718118 1 1 0
5747 1916 2 -0.35 9.137318992154135 6.814894313517308 87.72719189738001 1 1 0
5746 1916 1 0.7 8.136973563223219 7.062879542990359 87.1890658711365 1 1 0
5987 1996 2 -0.35 3.098794588820897 1.7866521580148276 87.41065439258571 1 1 0
3522 1174 2 -0.35 0.5496110075506687 7.833863450422429 93.44469928919303 1 0 0
5359 1787 1 0.7 4.047868432886033 7.803541558976217 94.94475169257865 1 1 0
2354 785 2 -0.35 9.823983027063413 0.8900096725777712 88.23834610540945 0 1 0
5492 1831 2 -0.35 6.247990235637677 1.948673137948046 92.9206316442725 1 1 0
3520 1174 1 0.7 0.3249715381726092 8.03526233182538 94.55946331966416 1 0 0
5507 1836 2 -0.35 1.555211928096021 3.2493027021739023 94.87350918721056 1 1 0
5523 1841 2 -0.35 2.1174223158506904 7.751915310697752 87.00126542297207 1 1 0
4129 1377 1 0.7 4.662003242804403 4.879882601835267 88.26182175182866 1 0 0
4131 1377 2 -0.35 4.598307686518616 6.030354047448521 88.24575692257932 1 0 0
5521 1841 1 0.7 1.8607005830256018 6.6916534326817825 87.38731340236309 1 1 0
5986 1996 1 0.7 2.8371542285791644 2.5622805105545146 86.59195476810496 1 1 0
5748 1916 2 -0.35 7.1419076866030995 7.440269359224219 86.73010007561713 1 1 0
4130 1377 2 -0.35 4.787132656168422 3.733364566164241 88.23261354961637 1 0 0
3527 1176 2 -0.35 7.078162898781133 2.001931423173891 89.82251814659895 1 0 0
5988 1996 2 -0.35 2.5258640072648997 3.36702575700478 85.81449720015594 1 1 0
4313 1438 2 -0.35 5.236651630636286 4.742300839378502 91.68780615815685 1 0 0
3813 1271 2 -0.35 1.36105734972774 7.640469711841651 90.03794778212344 1 0 0
3811 1271 1 0.7 2.0629610993613023 7.099809451197122 90.80574352826844 1 0 0
3812 1271 2 -0.35 2.802855601554892 6.533538219850804 91.54674574500773 1 0 0
4312 1438 1 0.7 4.504258201787795 4.536034312750914 92.58435905806911 1 0 0
4314 1438 2 -0.35 3.7594179821781015 4.324785640263463 93.47091100070236 1 0 0
4092 1364 2 -0.35 3.767166772697604 9.139924284326636 90.8617396473093 1 0 0
1961 654 2 -0.35 3.4973043274004816 1.9870750941106734 90.92733887450392 0 1 0
2190 730 2 -0.35 10.243233815794536 1.6824557062383145 93.42145770112772 0 1 0
1960 654 1 0.7 2.9960162376899264 0.9757488849306967 90.595784424827 0 1 0
3526 1176 1 0.7 7.491032623418278 3.0604075306455423 89.96996700830219 1 0 0
4189 1397 1 0.7 8.066949800704256 7.019268547398339 90.46246972276074 1 0 0
4191 1397 2 -0.35 9.095512284037373 7.213742086077191 91.00931791490956 1 0 0
4190 1397 2 -0.35 7.0680121792596395 6.802597321596008 89.9286270705737 1 0 0
2188 730 1 0.7 10.005794041671637 2.519272147679403 94.21101397697313 0 1 0
3842 1281 2 -0.35 7.26966852589265 4.909018793907497 93.94304261139608 1 0 0
3841 1281 1 0.7 7.168078681819882 6.001082848052782 93.5332525472189 1 0 0
3528 1176 2 -0.35 7.898178777267791 4.164839469781975 90.09296755669641 1 0 0
3843 1281 2 -0.35 7.132864104600732 7.065610701000655 93.04854778608158 1 0 0
4322 1441 2 -0.35 0.016848724547024574 9.775059781515187 85.84159412206408 1 0 0
7019 2340 2 -0.35 18.344712609332273 19.278120032658972 72.63356777252815 1 1 1
557 186 2 -0.35 6.2838556799389975 0.7310128908503076 87.42896640193318 0 1 0
5491 1831 1 0.7 5.673060877336869 1.8065222134678005 93.9120860044761 1 1 0
1947 649 2 -0.35 14.238346173315755 7.969055731605014 94.66637397784375 0 1 0
2538 846 2 -0.35 16.15999298573289 0.7578884009037833 88.56486705365305 0 1 0
3586 1196 1 0.7 15.033024048820051 17.975609432412377 93.15751556138581 1 0 0
5320 1774 1 0.7 19.137282039983365 9.036084743575532 93.66180081370919 0 1 0
37 13 1 0.7 10.463414754353344 17.21087225175873 91.16866628365304 0 0 0
445 149 1 0.7 18.932428328069 1.7832451052418086 90.33578939364989 0 0 0
2145 715 2 -0.35 12.752068393941114 2.069507463764494 88.20949366157527 0 1 0
446 149 2 -0.35 19.251545176201144 2.790010795893859 89.86707067651346 0 0 0
3846 1282 2 -0.35 17.196904467802938 8.358283949216855 89.84466711481474 0 0 0
2570 857 2 -0.35 13.113424361776671 6.160454248278979 89.5543901305865 0 1 0
2222 741 2 -0.35 17.885362776764016 3.552879769990396 93.34566934187238 0 1 0
2571 857 2 -0.35 11.866624679246216 8.094542065335046 89.14430485029177 0 1 0
2569 857 1 0.7 12.493489198956054 7.127950073798006 89.2932567555569 0 1 0
3972 1324 2 -0.35 14.296911430943304 7.993438172802717 91.28927962704654 1 0 0
2144 715 2 -0.35 12.076512174557205 2.011645108342516 85.95073027165111 0 1 0
575 192 2 -0.35 16.517503025619536 3.6108766637840306 90.44183004665715 0 0 0
2143 715 1 0.7 12.402797245057805 2.0716298910843194 87.08597815881365 0 1 0
574 192 1 0.7 15.70748925897278 3.381613863535603 91.21029777744033 0 0 0
576 192 2 -0.35 14.827782805370468 3.1506735036423024 91.90727737868532 0 0 0
632 211 2 -0.35 15.491200861750574 4.55704819637445 87.68598436983096 0 0 0
631 211 1 0.7 16.461028821797722 3.970467491603322 87.42481850272553 0 0 0
633 211 2 -0.35 17.410812485886066 3.330707062951345 87.15559632353052 0 0 0
721 241 1 0.7 10.924674340558742 7.3761989881409304 92.99555379522896 0 0 0
722 241 2 -0.35 11.770866371178446 7.787843873293926 92.33050283848746 0 0 0
2220 740 2 -0.35 11.309911570276626 4.081963859517307 91.85664875283038 0 1 0
2218 740 1 0.7 10.82690262251383 3.508173558444309 90.95699832454706 0 1 0
2219 740 2 -0.35 10.335562514943339 3.0152368572179484 90.03785921854603 0 1 0
3971 1324 2 -0.35 15.934959120015025 6.8708393401244985 92.49714629701556 1 0 0
3970 1324 1 0.7 15.10199868212344 7.40404631936593 91.85881079911462 1 0 0
88 30 1 0.7 10.600974843182021 14.970288591007039 87.45423432247381 0 0 0
5734 1912 1 0.7 13.711800582216778 0.5372710298509078 93.3008559103697 1 1 0
2154 718 2 -0.35 15.383379037310494 9.614420178117433 86.9244003139686 0 1 0
396 132 2 -0.35 17.852416648764798 16.982961441081905 90.48623475610401 0 0 0
3844 1282 1 0.7 18.303628751515287 8.67834238552252 90.00158657408727 0 0 0
5735 1912 2 -0.35 14.435456866837331 0.08106059382856931 92.57811336186134 1 1 0
447 149 2 -0.35 18.667866116516308 0.7660237286086593 90.85783361171534 0 0 0
2536 846 1 0.7 15.331554607673022 0.050779326899784094 88.93137824165004 0 1 0
5321 1774 2 -0.35 18.335855740114777 9.914545222509568 93.66231312241374 0 1 0
3608 1203 2 -0.35 2.287622890699069 15.182058523248505 90.62689033847482 1 0 0
5515 1839 1 0.7 19.44839962413695 12.867786739512784 84.32732577230234 1 1 0
5975 1992 2 -0.35 8.927048137601012 10.931553930525219 87.09171557528293 1 1 0
425 142 2 -0.35 0.5941772516287485 12.576495643473661 89.86028862097636 0 0 0
89 30 2 -0.35 9.61993328366994 15.016619249161494 88.05040940209577 0 0 0
3660 1220 2 -0.35 8.613909245882983 10.118206609174438 92.96724877963875 1 0 0
3609 1203 2 -0.35 1.2579443707046707 16.03052182481223 88.73536661013857 1 0 0
1837 613 1 0.7 14.119633074249826 13.924387223873216 91.34081966473485 0 1 0
4099 1367 1 0.7 0.6382677855893605 19.136298988737934 87.15102897902733 1 0 0
3607 1203 1 0.7 1.8025383070223344 15.571509290402371 89.65930476837418 1 0 0
4100 1367 2 -0.35 1.718138932058351 18.769156136678223 86.956257990353 1 0 0
3960 1320 2 -0.35 0.6701751992688691 18.62523407059101 90.98068716719993 1 0 0
4090 1364 1 0.7 4.423278421880865 9.67849068613414 90.0800124575749 1 0 0
4091 1364 2 -0.35 5.0895859056860315 10.275318684571847 89.335664506433 1 0 0
6987 2329 2 -0.35 4.5893133739774665 15.252998038866327 87.01106943447544 0 -1 1
5999 2000 2 -0.35 7.683621334077179 19.275731349366165 91.68337399684381 1 1 0
416 139 2 -0.35 5.177773861212952 13.962449657781201 89.6295229703448 0 0 0
415 139 1 0.7 6.001123029899792 13.226605162926345 89.28002049191379 0 0 0
6983 2328 2 -0.35 5.499205621650333 18.1729916362664 86.84472426196173 1 -2 1
4179 1393 2 -0.35 3.42079586220996 12.03488135342587 92.15334203707738 1 0 0
417 139 2 -0.35 6.8251174062000874 12.5272642857045 88.88299486407794 0 0 0
513 171 2 -0.35 8.2089448544631 18.694668711816593 94.5968539512643 1 0 0
5974 1992 1 0.7 8.626712153192946 10.238911643971365 87.9737353881217 1 1 0
3787 1263 1 0.7 2.9559647852224002 17.061676122980842 92.87361981055392 1 0 0
3788 1263 2 -0.35 2.0058158861407085 16.815256467622753 93.53184876136179 1 0 0
3659 1220 2 -0.35 6.519136927939755 10.176443491396732 91.92654858592977 1 0 0
3658 1220 1 0.7 7.545047014846578 10.188077536637799 92.48427358727575 1 0 0
4177 1393 1 0.7 2.4898619286069907 11.36823645213427 92.33935699059842 1 0 0
4178 1393 2 -0.35 1.5218670255862312 10.727461014864627 92.39279109098237 1 0 0
5976 1992 2 -0.35 8.234146429064168 9.578376396404236 88.8948215832803 1 1 0
3962 1321 2 -0.35 4.68362019770322 14.63002561574413 94.3588582890976 1 0 0
3961 1321 1 0.7 5.317993512527391 13.935183107076032 93.67141746210167 1 0 0
3963 1321 2 -0.35 5.877571693802533 13.245947053296241 92.94509429333768 1 0 0
511 171 1 0.7 7.829237218833591 17.623586143197244 94.37829598845917 1 0 0
3789 1263 2 -0.35 3.9315730134070237 17.324382210731557 92.27340769073439 1 0 0
6982 2328 1 0.7 5.014585128974546 17.949976095211984 87.87549035150735 1 -2 1
512 171 2 -0.35 7.513588533325269 16.522204550937175 94.16897741344893 1 0 0
6958 2320 1 0.7 9.361551425983643 18.625640821480975 86.73545911570142 1 0 0
394 132 1 0.7 18.56126833681752 17.73445962269352 90.94394216157684 0 0 0
5493 1831 2 -0.35 5.000381932425811 1.7699720603171225 94.84007889757983 1 1 0
724 242 1 0.7 18.672037454380792 16.154550183747904 94.16928940484662 0 0 0
6960 2320 2 -0.35 9.965187689727744 17.849829598486817 86.12130092767548 1 0 0
4164 1388 2 -0.35 19.395373306980083 18.178727544693267 87.71417083173931 0 0 0
439 147 1 0.7 17.563414982902795 13.015958764633467 94.31454611291657 0 0 0
478 160 1 0.7 14.547173416094283 13.961267590432927 87.09003570190106 0 0 0
380 127 2 -0.35 12.400747372431194 11.811582849661741 87.9006276642194 0 0 0
203 68 2 -0.35 17.573672127255037 13.668176505058742 88.13090525014829 0 0 0
204 68 2 -0.35 17.419341415012962 15.324837497490584 86.5651863722164 0 0 0
5534 1845 2 -0.35 14.34885055187406 10.4258447125412 92.91815929046832 1 1 0
5533 1845 1 0.7 13.544826468673064 10.594542216208946 92.06424236714362 1 1 0
2152 718 1 0.7 15.440705072070449 10.540486849271035 87.64485750802478 0 1 0
39 13 2 -0.35 10.815508965868535 17.075027015011752 92.27187837705814 0 0 0
725 242 2 -0.35 18.676215317798246 15.696704133982621 93.10512310693775 0 0 0
3587 1196 2 -0.35 13.878385706898781 17.773340125128968 93.16738728578417 1 0 0
5535 1845 2 -0.35 12.793186216143146 10.670355175558491 91.19384126996626 1 1 0
4165 1389 1 0.7 10.549087713058649 13.156518246851554 93.13267916816929 1 0 0
4167 1389 2 -0.35 11.112393614758545 12.365279175860044 93.75289778522351 1 0 0
395 132 2 -0.35 19.33772502703834 18.447984588490968 91.40585689819378 0 0 0
4166 1389 2 -0.35 10.115044189454208 13.97652340088863 92.4556077390091 1 0 0
881 294 2 -0.35 14.375956366828763 17.77999417820755 89.76143992670302 0 0 0
880 294 1 0.7 13.84199089595427 17.968039978654318 88.73447638846682 0 0 0
1839 613 2 -0.35 15.197603119781444 14.14391713171391 90.91784334102671 0 1 0
4162 1388 1 0.7 18.22491474613219 18.236822271706625 87.65382041870701 0 0 0
882 294 2 -0.35 13.416614316769486 18.11841854215322 87.66881663036554 0 0 0
480 160 2 -0.35 14.445771453930508 14.725624849359678 87.93943141273303 0 0 0
3588 1196 2 -0.35 16.208270659592387 18.086318596221073 93.09663768385263 1 0 0
1838 613 2 -0.35 13.06183336967165 13.650408861894523 91.75997442982734 0 1 0
2169 723 2 -0.35 18.263459075422578 12.361815654981028 91.48154967199847 0 1 0
2153 718 2 -0.35 15.585974358579119 11.471292670230081 88.3425534277285 0 1 0
4163 1388 2 -0.35 17.08799508518319 18.361305351409484 87.6487076282076 0 0 0
2167 723 1 0.7 19.097449911588306 13.152181274258012 91.29550393501911 0 1 0
379 127 1 0.7 11.516971836680643 12.121357918508465 88.61587857149208 0 0 0
381 127 2 -0.35 10.640101261387798 12.463745415251033 89.28307928740941 0 0 0
44 15 2 -0.35 0.289207953789354 18.52909859380356 77.96715846310114 1 0 0
556 186 1 0.7 5.80826116430067 0.13696298114824867 88.32942622263383 0 1 0
488 163 2 -0.35 19.24432797296291 18.96517097465617 81.93531368369476 0 0 0
2353 785 1 0.7 9.14936419851767 0.18566829732371307 88.86980667106317 0 1 0
5360 1787 2 -0.35 4.7818705195858255 6.9643158086020165 94.73187176591 1 1 0
2221 741 1 0.7 18.143526595794025 3.590652308688545 94.46434876048582 0 1 0
1982 661 2 -0.35 19.341797850677395 0.26954208688218784 74.86062993901369 0 1 0
85 29 1 0.7 12.200102191134413 0.4025308672655008 74.88294463258978 0 1 0
5736 1912 2 -0.35 13.08902303836595 0.9214435712432711 94.18762229488563 1 1 0
6 2 2 -0.35 16.965969248796988 19.38006400440587 78.1208066187695 0 0 0
6053 2018 2 -0.35 13.608446984494789 0.5753377021814242 81.83775098840762 1 1 0
5267 1756 2 -0.35 8.229698057623311 19.306428593430518 80.93175967789789 1 0 0
59 20 2 -0.35 16.173394507875855 19.410677722794116 81.26529747583051 0 0 0
5217 1739 2 -0.35 9.645425742286987 0.047885820976468096 84.80290985642534 0 1 0
5339 1780 2 -0.35 7.2828299797127904 1.2805678976035864 101.08538926179476 1 1 0