LAMMPS data file via write_data, version 29 Aug 2024, timestep = 4000000, units = real

7050 atoms
2 atom types
4700 bonds
1 bond types
2350 angles
1 angle types

0 40 xlo xhi
0 40 ylo yhi
0 240 zlo zhi

Masses

1 12.0107
2 15.9994

Pair Coeffs # lj/cut/coul/long/omp

1 0.0536545 2.8
2 0.156989 3.05

Bond Coeffs # harmonic/omp

1 1028.27 1.16

Angle Coeffs # harmonic/omp

1 55.96 180

Atoms # full

3704 1235 2 -0.35 8.307246680418446 6.632168239671565 4.789332752199978 -10 1 0
3703 1235 1 0.7 7.427022221701032 5.952981975972413 4.418195176434362 -10 1 0
3705 1235 2 -0.35 6.626895228643063 5.281398158226701 3.9225040767992083 -10 1 0
4434 1478 2 -0.35 6.261154874722578 10.794297629306627 37.04472420864107 -6 -5 0
4433 1478 2 -0.35 7.4521087361176575 12.227366061380609 35.70623061474875 -6 -5 0
4432 1478 1 0.7 6.884702173306991 11.467667867494134 36.34650880676666 -6 -5 0
6485 2162 2 -0.35 1.2978200478473731 18.36327534526864 36.14506473961188 2 0 0
6484 2162 1 0.7 0.49385239732024466 19.149931060255728 36.223894771751574 2 0 0
635 212 2 -0.35 6.049886415362877 14.297002516361612 67.85335577935022 1 -1 0
4832 1611 2 -0.35 10.03944027993352 18.42314534120494 67.88001968610195 -7 -1 1
4833 1611 2 -0.35 10.536928321746275 19.746607895194696 66.04599728186338 -7 -1 1
4831 1611 1 0.7 10.328527373784965 19.083593846422602 66.95937220881112 -7 -1 1
5190 1730 2 -0.35 2.481638544490075 4.885600213235051 72.41113520722155 2 0 0
5188 1730 1 0.7 3.16761283762649 5.462623685076014 73.18865078276856 2 0 0
5189 1730 2 -0.35 3.913839618003819 6.017584580695754 73.87166572710194 2 0 0
1084 362 1 0.7 0.3980806770457329 8.11170393977264 75.52052189205754 -1 -1 0
5386 1796 1 0.7 5.044615069560278 9.175985087967685 74.72733568308215 2 1 0
5387 1796 2 -0.35 4.873126079792252 9.582468275827463 73.67911205872491 2 1 0
5388 1796 2 -0.35 5.097932515748128 8.734797725261833 75.7874050258393 2 1 0
1085 362 2 -0.35 1.0425350441956622 7.334740346883704 74.95676621619823 -1 -1 0
1908 636 2 -0.35 9.717187019342866 5.740698616300483 76.1079767228868 -8 -5 1
1906 636 1 0.7 9.513473743447967 5.073429916116526 77.06709305098809 -8 -5 1
2667 889 2 -0.35 17.796505140723635 5.774451053490967 74.90309421455893 -5 -1 0
2666 889 2 -0.35 16.165300250776028 4.873977799678678 73.50793951919663 -5 -1 0
2665 889 1 0.7 17.010670779055175 5.249258116920941 74.22764005293281 -5 -1 0
5579 1860 2 -0.35 14.09676443711393 9.084605622865357 76.45781947364361 0 0 0
5578 1860 1 0.7 14.529338467191362 8.118395336410895 76.78595137387575 0 0 0
3323 1108 2 -0.35 12.226094806762866 4.84731765450037 74.00870532119258 -1 1 0
3322 1108 1 0.7 12.342008763525792 5.866712726063072 74.55201817464518 -1 1 0
3324 1108 2 -0.35 12.409458838316542 6.902423584334567 75.06356038889353 -1 1 0
3554 1185 2 -0.35 18.689105204971394 8.663716099166708 71.57267744696227 2 0 0
1004 335 2 -0.35 15.007432056929533 2.1095994701095315 73.50882252494252 -2 0 1
2099 700 2 -0.35 17.581256329708534 0.2762972005857005 75.26359089866335 -1 2 0
1005 335 2 -0.35 14.065982158587085 2.5963571777694856 75.58300235381263 -2 0 1
1003 335 1 0.7 14.556759830316084 2.3680146895226013 74.55494062827847 -2 0 1
3553 1185 1 0.7 18.79110723405477 9.823825745133636 71.42141201915997 2 0 0
5580 1860 2 -0.35 15.091971574287404 7.161127943621093 77.11851292053204 0 0 0
4002 1334 2 -0.35 19.262084212505943 2.719850369306785 76.63668593970301 -1 1 0
2098 700 1 0.7 18.164833202391126 0.985087543386026 74.54363497667873 -1 2 0
2100 700 2 -0.35 18.782562786066457 1.6358029993171401 73.84002757007094 -1 2 0
634 212 1 0.7 5.27730593099275 14.26788999375679 68.69742056541287 1 -1 0
636 212 2 -0.35 4.519996164157249 14.359824589914467 69.59052793032066 1 -1 0
2863 955 1 0.7 3.2192785561089856 12.963634579399121 75.54744326507192 -3 1 1
4076 1359 2 -0.35 7.254230886788937 16.707521941064442 72.68661413955179 -6 6 0
4075 1359 1 0.7 7.396437814849131 16.471548247366844 73.83420286737277 -6 6 0
4077 1359 2 -0.35 7.587749332738594 16.253385595789076 74.96992660097246 -6 6 0
2864 955 2 -0.35 2.1852211313897976 12.410952689762611 75.5325013931065 -3 1 1
387 129 2 -0.35 4.48184812891385 16.9369979542136 74.60785594298433 4 3 1
385 129 1 0.7 3.470010097301117 16.502054625997673 74.96275580181835 4 3 1
386 129 2 -0.35 2.4354888157553023 16.048147241643477 75.26344721955599 4 3 1
2865 955 2 -0.35 4.21893192853881 13.501540682117987 75.64181570963366 -3 1 1
6651 2217 2 -0.35 2.382180585489626 19.04303866474891 72.48132834867582 1 0 0
5508 1836 2 -0.35 9.405267819402667 13.492715911217857 73.16675585838894 2 0 0
529 177 1 0.7 10.07762308496314 18.79220744260785 75.85674331097576 -10 -10 0
531 177 2 -0.35 9.790816784118995 18.679287423704224 74.73579835755578 -10 -10 0
6649 2217 1 0.7 2.406008028506148 19.762967282676602 73.39732411978392 1 0 0
5507 1836 2 -0.35 10.849489371526747 14.27060061552972 74.83613281814408 2 0 0
5506 1836 1 0.7 10.138868024147996 13.84066462923289 73.99890026506343 2 0 0
3555 1185 2 -0.35 18.825764629955902 10.940201571850137 71.26806746926145 2 0 0
333 111 2 -0.35 13.9288652335777 12.665395912727798 72.19209779845897 2 2 0
331 111 1 0.7 13.764354325958648 12.049086553002684 71.23278297672104 2 2 0
332 111 2 -0.35 13.564384411594272 11.498502580286747 70.22194987826816 2 2 0
3562 1188 1 0.7 15.05143281855615 17.54303154600151 76.57502820470152 4 2 0
3563 1188 2 -0.35 14.78601892593404 16.76359318153134 75.73541988802678 4 2 0
1599 533 2 -0.35 20.015853958077958 13.316976312143264 76.78506461685275 1 1 0
2649 883 2 -0.35 18.349547993381595 15.60317224424561 75.15174566997088 5 1 1
534 178 2 -0.35 12.285876432868754 17.482185740877874 71.44748719982373 -1 -1 1
532 178 1 0.7 11.605687916612883 16.673935657636186 71.92800644595084 -1 -1 1
533 178 2 -0.35 10.85428122658975 15.841879564268364 72.18219799665478 -1 -1 1
6030 2010 2 -0.35 11.403738017825738 10.923930119492498 75.31771978356807 -1 1 1
2647 883 1 0.7 18.635975247740948 16.692430885648864 75.0560495931428 5 1 1
6028 2010 1 0.7 11.643411663480501 11.67454711144748 76.14614594686954 -1 1 1
2648 883 2 -0.35 18.933847130928637 17.800720542531124 75.0003218676035 5 1 1
1597 533 1 0.7 18.969672493155013 12.927643104289643 76.44471557879467 1 1 0
6029 2010 2 -0.35 11.947195802521016 12.452289335929176 76.93987573501688 -1 1 1
1598 533 2 -0.35 17.93087064541096 12.58088885692249 76.15097312692775 1 1 0
530 177 2 -0.35 10.30826699326801 18.9232069401329 76.99000187081188 -10 -10 0
146 49 2 -0.35 0.19017149042253975 6.714392499052404 78.23967872696332 0 -3 0
145 49 1 0.7 1.3648335413147135 6.722098867877913 78.27332577701887 0 -3 0
5072 1691 2 -0.35 2.9390704581434783 3.0559821309784785 77.31750386409523 0 0 0
5071 1691 1 0.7 3.413964637453631 1.9636622582969947 77.4483010622692 0 0 0
147 49 2 -0.35 2.526178685599753 6.684178250037207 78.41029470497493 0 -3 0
5073 1691 2 -0.35 3.733238802800132 0.8844538222489979 77.68316241167643 0 0 0
4593 1531 2 -0.35 7.0248294970425915 6.6847559932670215 77.35278612368279 1 -3 0
4591 1531 1 0.7 6.226194165817105 6.532605339029005 78.15747620209709 1 -3 0
4592 1531 2 -0.35 5.429701279082943 6.341708483533557 78.97108339105688 1 -3 0
6891 2297 2 -0.35 4.395785975972859 4.164167504680878 80.59809014760988 2 0 0
6889 2297 1 0.7 4.081286271180831 5.139005234937364 81.16360855286383 2 0 0
6764 2255 2 -0.35 2.3925858493118266 9.422765482320406 77.75529033047651 0 1 0
6890 2297 2 -0.35 3.717216251167244 6.0721422017530795 81.76048234128184 2 0 0
6763 2255 1 0.7 3.403626518494762 9.695292096742188 78.29086798315763 0 1 0
1009 337 1 0.7 5.083072873886584 2.262689179520254 83.09889872122628 1 6 0
1907 636 2 -0.35 9.345763571392583 4.394234670452849 77.94631798488747 -8 -5 1
1043 348 2 -0.35 0.29017914567825503 3.194993246994833 84.68578767852054 1 -1 0
1010 337 2 -0.35 6.247856623393133 2.4883742517106935 82.94592598842401 1 6 0
3392 1131 2 -0.35 7.085016289884444 7.970905940805048 84.55850534866717 1 2 0
1011 337 2 -0.35 3.9896353929309436 2.021061996800177 83.35240888803642 1 6 0
3362 1121 2 -0.35 4.944293939809125 9.54920490344312 82.03405822442097 1 1 0
5169 1723 2 -0.35 1.3725848598900312 3.323823558539431 80.09806165165111 2 1 0
3391 1131 1 0.7 7.776517528480951 8.658336081024371 83.89927355840592 1 2 0
4839 1613 2 -0.35 5.0891046931202935 4.914237425071935 84.14576405233812 1 0 0
1044 348 2 -0.35 1.2440205749995168 4.087201581341904 82.73873545373546 1 -1 0
1042 348 1 0.7 0.7863328498055849 3.6745446262038017 83.73294747368695 1 -1 0
5167 1723 1 0.7 1.4133925143084547 2.31816425200966 80.67000908269173 2 1 0
6357 2119 2 -0.35 8.929811572506946 1.1918300416664578 79.99457856959526 2 -6 1
3668 1223 2 -0.35 9.722810428341853 7.780319960270808 79.74525941919887 2 0 0
6453 2151 2 -0.35 9.65995564635203 2.504091122581575 84.45403481798341 2 3 0
6451 2151 1 0.7 8.877911296599624 3.3523600889419014 84.59563274908031 2 3 0
3393 1131 2 -0.35 8.493967661236814 9.374200043196964 83.28138736626171 1 2 0
5187 1729 2 -0.35 1.49027245223708 9.150190752848506 80.88517413024884 5 -3 0
5185 1729 1 0.7 1.1590463126410602 8.848801789379387 81.97128083523556 5 -3 0
5186 1729 2 -0.35 0.7407370794574664 8.605232544138433 83.00034097882234 5 -3 0
5168 1723 2 -0.35 1.4272211320615473 1.2680240155817744 81.18484137920694 2 1 0
1033 345 1 0.7 1.072064515754422 0.18865666077339416 84.69819295808739 0 0 0
3361 1121 1 0.7 5.812635576164611 9.01164831513209 81.42312410334965 1 1 0
3363 1121 2 -0.35 6.727758370704424 8.495176250829122 80.9376207261903 1 1 0
6355 2119 1 0.7 9.752247020145926 1.699041603106821 80.63876188273015 2 -6 1
3667 1223 1 0.7 10.074273668990894 8.717988690920171 79.22418369548397 2 0 0
4837 1613 1 0.7 5.247989998332882 5.140229731522599 85.28086214190476 1 0 0
6452 2151 2 -0.35 8.125126944288754 4.202372760211394 84.82032924686004 2 3 0
3606 1202 2 -0.35 2.347329275905492 6.438447779065192 84.75098784361597 -1 0 0
3604 1202 1 0.7 1.7839581353004543 7.257746154391556 85.34102795000408 -1 0 0
1034 345 2 -0.35 2.019999345279792 0.4148285997270059 85.3477545270626 0 0 0
5741 1914 2 -0.35 0.11025735186586381 5.976805322288689 81.07461224515015 -4 -5 0
1403 468 2 -0.35 5.716797952751587 0.8158106125795528 80.64822040838146 -2 1 1
3858 1286 2 -0.35 17.956169498972287 8.959136479203625 77.29703184435563 3 7 0
5618 1873 2 -0.35 16.809939967918385 3.9217130957005892 77.51759219548367 1 0 0
3857 1286 2 -0.35 18.38677859464105 9.02489138502955 79.58009998065677 3 7 0
5846 1949 2 -0.35 11.630963885608981 0.3727652400554196 78.09177308293661 2 2 0
2859 953 2 -0.35 12.515708914025634 7.9948106189490105 80.35279392641257 -3 0 0
2857 953 1 0.7 12.937736684268142 7.022238713038026 80.87406453554638 -3 0 0
6356 2119 2 -0.35 10.535509644748922 2.2578165553401486 81.25941504485412 2 -6 1
1191 397 2 -0.35 13.284707639800406 5.488394679178677 78.39745052578719 8 -2 0
1189 397 1 0.7 13.220678571341292 4.3812977802126705 78.77409946745286 8 -2 0
1190 397 2 -0.35 13.35044983395724 3.29119350063259 79.20423526739607 8 -2 0
2595 865 2 -0.35 15.359728250243517 8.862815031505214 80.01344392409081 1 -1 0
5127 1709 2 -0.35 17.012800453258166 1.9302768312417622 79.77564223361613 3 3 1
2919 973 2 -0.35 10.235124091815457 6.895818667977789 83.20601870842754 2 2 0
642 214 2 -0.35 16.188251201722295 5.108845368957228 80.28212626985035 1 0 0
3904 1302 1 0.7 13.332847145364235 3.1323584691322988 83.43252260400273 1 1 0
640 214 1 0.7 16.004139757148614 4.623104519987748 81.27730115609155 1 0 0
2917 973 1 0.7 10.2798260893181 6.148257227764185 82.28391180643587 2 2 0
3905 1302 2 -0.35 12.881707201646243 4.1865263760738625 83.66761574510235 1 1 0
641 214 2 -0.35 15.847126981926284 4.164316181055349 82.3503393477549 1 0 0
2918 973 2 -0.35 10.29282797467334 5.492939853805571 81.330337298609 2 2 0
5619 1873 2 -0.35 18.168416395094443 5.6540927394846445 78.25011994921233 1 0 0
5617 1873 1 0.7 17.42293620192231 4.838954072101797 77.85360825306934 1 0 0
291 97 2 -0.35 17.238547362896394 1.4589272085903893 82.52043982280796 5 0 1
290 97 2 -0.35 16.990633165955032 2.183686963030515 84.72761174734305 5 0 1
289 97 1 0.7 17.105836929135954 1.7953243112159858 83.62509464807182 5 0 1
5125 1709 1 0.7 17.482377046403794 0.8800761968175099 79.86697702453313 3 3 1
2858 953 2 -0.35 13.283596193513034 6.060776459011079 81.40040051609193 -3 0 0
3906 1302 2 -0.35 13.829602859403456 2.0727208005925495 83.2769471147907 1 1 0
4455 1485 2 -0.35 17.53324496714467 6.68822648155293 84.18592705685506 -2 1 0
4454 1485 2 -0.35 16.490041152101373 7.6684773090360725 82.38804224580356 -2 1 0
4453 1485 1 0.7 16.989564738814863 7.152081067276656 83.30390213015522 -2 1 0
6557 2186 2 -0.35 19.255187829182873 5.443331268325674 81.25286860893914 1 2 0
6556 2186 1 0.7 19.334035110621464 4.478349287308489 80.65118928567539 1 2 0
3856 1286 1 0.7 18.188700914564 8.94009940361734 78.43145826328545 3 7 0
3669 1223 2 -0.35 10.426234503198536 9.61810713318357 78.58213273707743 2 0 0
2593 865 1 0.7 15.668377338779116 9.832704714194351 80.55187938736597 1 -1 0
3691 1231 1 0.7 15.371336935967022 9.69512868346971 84.19188616643888 0 2 1
3692 1231 2 -0.35 14.33880067467203 9.520906637320424 83.70132880274183 0 2 1
1560 520 2 -0.35 14.731321450373985 6.2586430923006695 85.00508965556779 2 -1 0
3975 1325 2 -0.35 19.70097165045864 9.625429059147578 82.95094882814385 0 2 0
6558 2186 2 -0.35 19.571918726927372 3.60744010916866 79.88902324719128 1 2 0
6389 2130 2 -0.35 13.88144356088483 0.7687689641167414 80.7522932257513 3 2 0
6765 2255 2 -0.35 4.3802128772685 9.913536329095667 78.85239692173344 0 1 0
2531 844 2 -0.35 0.11987952423247047 14.94326689298739 78.57183721205575 1 2 0
3739 1247 1 0.7 9.81259388350978 19.106366966550155 84.27465914196887 5 2 0
6260 2087 2 -0.35 5.1792111075181815 16.914660106192628 77.6220252396797 1 1 0
6261 2087 2 -0.35 6.959472208937667 18.281310065370487 78.22852784903617 1 1 0
6259 2087 1 0.7 6.088391539315006 17.575800206725518 77.90203675106545 1 1 0
6906 2302 2 -0.35 2.4185858720783084 17.64744776727007 79.19841405270913 1 0 0
4950 1650 2 -0.35 2.61967407469656 12.507331209690584 78.81844717020837 3 4 0
6905 2302 2 -0.35 3.027423471874024 15.505431803605244 79.81697488629293 1 0 0
6904 2302 1 0.7 2.6954186783181324 16.593078992201562 79.54142127788464 1 0 0
1781 594 2 -0.35 5.5127955776874185 10.879714541354403 84.99286283229844 2 1 0
4948 1650 1 0.7 2.0124902743874054 12.418965166935596 79.80275247486628 3 4 0
4949 1650 2 -0.35 1.3646892868134872 12.30273873466806 80.79709047608274 3 4 0
934 312 1 0.7 2.580102550252257 15.050137082984644 83.41827582797107 1 0 0
936 312 2 -0.35 1.8929115176666835 14.36847057585929 84.03460973841067 1 0 0
2170 724 1 0.7 4.852081946662404 18.572679384541722 85.21383916508492 1 0 0
935 312 2 -0.35 3.289505729825652 15.775533666390888 82.84561888150331 1 0 0
2172 724 2 -0.35 3.961848140087971 18.622655945382437 84.49569029618681 1 0 0
1583 528 2 -0.35 6.452091517110371 12.306209921739573 81.35027865621352 -3 7 1
1584 528 2 -0.35 4.358819188692953 12.750966706684071 82.12309030898103 -3 7 1
1582 528 1 0.7 5.399036745844742 12.525410290632069 81.7325038476366 -3 7 1
851 284 2 -0.35 6.547907383534266 16.02349487499783 81.24362742342673 5 -2 1
850 284 1 0.7 6.9946263482433295 16.639943166610387 82.12725044949342 5 -2 1
5983 1995 1 0.7 7.308892505690902 13.557594754977556 85.02685675188778 2 1 0
852 284 2 -0.35 7.42227712855184 17.169972364870432 83.07925129615059 5 -2 1
5984 1995 2 -0.35 6.576785630122265 13.855447255425517 84.19647750791387 2 1 0
1780 594 1 0.7 4.553610274403619 10.407207506791963 85.46901749177664 2 1 0
682 228 1 0.7 0.3600991295010058 18.247850050369365 83.52424990649398 0 1 0
684 228 2 -0.35 0.5946653033243688 17.126251295162344 83.32345547767211 0 1 0
683 228 2 -0.35 0.00851913541138785 19.310597448240593 83.81490500183509 0 1 0
890 297 2 -0.35 10.012071383185528 16.16742970716329 82.21141604319372 0 0 0
6984 2328 2 -0.35 8.907534265145106 18.620276362152715 80.7120134060389 1 -1 0
739 247 1 0.7 3.9061683526536655 19.389167594441673 81.1413981793095 2 0 1
6982 2328 1 0.7 8.557089642741836 19.682895295257726 80.89601429144908 1 -1 0
740 247 2 -0.35 4.7798031338260385 18.7230176519642 80.77718758417899 2 0 1
3564 1188 2 -0.35 15.278408037956401 18.147645119914145 77.5330411261814 4 2 0
1914 638 2 -0.35 19.41953265949141 15.639557491932194 80.53070957782926 -2 -3 1
752 251 2 -0.35 12.147736681746608 16.473616869957258 77.9189252809189 0 -2 0
6488 2163 2 -0.35 14.635150180020933 12.141430746802538 78.38036531596823 0 -1 1
6487 2163 1 0.7 14.564324745170836 13.286460909690616 78.35140443485068 0 -1 1
2594 865 2 -0.35 15.892734997669198 10.777253239087019 81.12721923265963 1 -1 0
3693 1231 2 -0.35 16.40268412384665 9.957478263530817 84.69226095527951 0 2 1
6489 2163 2 -0.35 14.550696848408649 14.437287009874103 78.30338059159533 0 -1 1
1206 402 2 -0.35 16.029791699332918 16.897442862148583 80.5294289271596 0 -1 0
1204 402 1 0.7 15.293148062501698 17.488839321315403 81.20113394626391 0 -1 0
3998 1333 2 -0.35 17.848988663072504 13.988480472908726 82.6336758347178 -7 -7 0
889 297 1 0.7 11.16179765478181 16.04474547933964 82.22903864176973 0 0 0
891 297 2 -0.35 12.294050707384923 15.832724304593356 82.17950669300075 0 0 0
753 251 2 -0.35 10.796171373697742 15.274984224940924 79.37681117416913 0 -2 0
751 251 1 0.7 11.512878542603083 15.838419594565147 78.64457625464476 0 -2 0
664 222 1 0.7 12.029383048339195 11.931768457375986 80.90804399742728 0 -1 1
665 222 2 -0.35 12.625972181565743 12.650321155648163 80.21161684860054 0 -1 1
666 222 2 -0.35 11.419278441772434 11.216648145610886 81.5272656937667 0 -1 1
5078 1693 2 -0.35 15.331978400446227 15.22105785942597 84.4110383643104 4 -1 0
5079 1693 2 -0.35 15.490740093896008 17.39228682111186 85.27583650209932 4 -1 0
5077 1693 1 0.7 15.427663607493873 16.308635879624486 84.8827352210613 4 -1 0
1205 402 2 -0.35 14.685995922098847 18.00601731908212 81.9967661578037 0 -1 0
3997 1333 1 0.7 18.228823861678016 13.352667859254446 81.77246555880714 -7 -7 0
3741 1247 2 -0.35 10.593269268984004 18.33794433189191 84.63757672288116 5 2 0
4237 1413 1 0.7 11.864837823529902 13.090916787747624 85.56205068057417 3 0 1
4238 1413 2 -0.35 11.045771570942698 13.842422875278892 85.26201965749308 3 0 1
3999 1333 2 -0.35 18.62463052754015 12.686439359498607 80.92406460949904 -7 -7 0
1913 638 2 -0.35 19.55850406881985 16.002685547707163 78.2461163647293 -2 -3 1
2453 818 2 -0.35 19.712244337083803 14.162821219840403 85.44138537007571 -1 1 0
1912 638 1 0.7 19.471450964092142 15.84263797604274 79.39256097106895 -2 -3 1
5392 1798 1 0.7 19.9851055814272 19.536645161333432 80.10127983133333 7 0 0
5394 1798 2 -0.35 20.22185153492364 18.423892228191434 80.34331287285735 7 0 0
2109 703 2 -0.35 11.982324480455151 19.73315200490941 79.39259703887474 1 -3 0
3605 1202 2 -0.35 1.2404540467430059 8.064770759218943 85.98699633973094 -1 0 0
3210 1070 2 -0.35 0.4656088957466632 2.9814529120180073 88.62576513902482 2 1 0
4838 1613 2 -0.35 5.365478276367498 5.294092576625441 86.41765765084094 1 0 0
1537 513 1 0.7 4.030745985692446 3.284699749977329 88.06341974420138 -1 -1 0
1539 513 2 -0.35 4.532333594827556 3.175550559255393 89.1057248902158 -1 -1 0
6123 2041 2 -0.35 7.30863316334553 4.744019707066161 90.24987491441169 -5 -6 0
6121 2041 1 0.7 7.754884678251757 3.704898827227734 89.94117701525143 -5 -6 0
6122 2041 2 -0.35 8.216305787761357 2.713166333923962 89.591084508712 -5 -6 0
6328 2110 1 0.7 5.222498634820614 0.8333844170638975 91.68133214438072 1 -1 0
6330 2110 2 -0.35 6.2751064464114625 0.7553028598368963 91.19132227429851 1 -1 0
6329 2110 2 -0.35 4.168397877623788 0.8767373644970957 92.14986237946471 1 -1 0
1538 513 2 -0.35 3.576393208653661 3.3453546561334053 87.00194268191461 -1 -1 0
6850 2284 1 0.7 4.595153592403069 3.6335695507640873 93.40501714796777 2 -2 0
6851 2284 2 -0.35 4.625807811211516 4.309959708795686 92.47135630554587 2 -2 0
4142 1381 2 -0.35 2.214015767094775 8.770936731611219 92.25830687340077 0 1 0
4141 1381 1 0.7 1.398885934359727 9.089481931111155 93.00755816075895 0 1 0
1213 405 1 0.7 8.023179062467683 5.315116373931214 94.13032702818657 -1 1 0
788 263 2 -0.35 2.1493743130099854 5.359935714088538 90.11311270294581 1 1 0
1214 405 2 -0.35 7.579826130606876 5.839726476379104 93.19903349315058 -1 1 0
787 263 1 0.7 1.4951734597942772 5.271587024982462 91.0773830821411 1 1 0
6496 2166 1 0.7 2.825582168375598 8.783291551778905 89.13508074095353 2 3 0
6498 2166 2 -0.35 3.8960110134008334 9.17828599282175 89.38227777200531 2 3 0
4515 1505 2 -0.35 6.171231693690964 1.53863012659449 86.70898122660344 -4 -1 1
4513 1505 1 0.7 6.191524479846704 0.4291794683826656 87.06741686560112 -4 -1 1
3557 1186 2 -0.35 7.191221715038716 7.4697933366763225 89.08349243352751 2 1 0
4143 1381 2 -0.35 0.5830306902610959 9.358186433592103 93.80598038525173 0 1 0
3556 1186 1 0.7 6.912521586360663 7.842061484544795 90.15888885259919 2 1 0
3558 1186 2 -0.35 6.546231526630066 8.318448860300078 91.1778657582327 2 1 0
3448 1150 1 0.7 8.905267213789994 1.3839735277640774 92.65583058970033 3 -4 1
3449 1150 2 -0.35 8.31939047094572 2.3610635162052245 92.55216567697569 3 -4 1
6545 2182 2 -0.35 9.758479752552779 0.7526117924019328 87.40728668581357 -1 2 0
4743 1581 2 -0.35 8.285985188342773 8.902045770530972 94.22960361251614 1 0 0
789 263 2 -0.35 0.7595543229730406 5.186113262132816 91.99070345753142 1 1 0
3450 1150 2 -0.35 9.486358456643218 0.3753589129931334 92.72899786260025 3 -4 1
1296 432 2 -0.35 9.933282981340861 6.875307732536045 87.18589582955387 0 0 0
1294 432 1 0.7 9.72317717456699 5.775635038573351 87.53908242388472 0 0 0
1295 432 2 -0.35 9.682161597970062 4.686506016052277 87.91591811207373 0 0 0
4741 1581 1 0.7 9.367242991829093 8.803440336312958 93.79070266256632 1 0 0
6497 2166 2 -0.35 1.7917614540840956 8.341919368823763 88.83678939353777 2 3 0
3434 1145 2 -0.35 4.900041282861398 8.852279906148663 94.2463528978093 0 0 0
1393 465 1 0.7 1.710234348944307 0.7564428606318075 90.5375815877094 1 0 0
1395 465 2 -0.35 1.1323550986600077 1.4904972295217644 91.19962701867254 1 0 0
1394 465 2 -0.35 2.2997350464709427 0.0023701205320350027 89.88967955873338 1 0 0
686 229 2 -0.35 10.900687208959868 3.356812593028691 91.42176123645112 0 -1 0
685 229 1 0.7 10.65250081215812 4.4607933007629095 91.56606384514292 0 -1 0
6546 2182 2 -0.35 11.265705608927053 0.4520426531812647 89.09893849864639 -1 2 0
687 229 2 -0.35 10.518707808649976 5.593191506437102 91.7275321055322 0 -1 0
4227 1409 2 -0.35 13.261177551415129 7.575085268081498 92.35848758431091 1 1 0
5746 1916 1 0.7 19.49019461216702 0.41144329576662286 92.39079349620296 8 5 1
730 244 1 0.7 15.852253789111534 7.691564675968197 90.67284211344706 3 7 0
4594 1532 1 0.7 12.814793177009168 5.754775416037128 89.79907617506505 1 1 0
4595 1532 2 -0.35 13.747148749893954 5.321164564850377 90.3214765286968 1 1 0
731 244 2 -0.35 16.35130054877722 7.57044386613563 91.7362946393857 3 7 0
4596 1532 2 -0.35 11.833477361046912 6.099048491291765 89.28949195112016 1 1 0
732 244 2 -0.35 15.287657326308626 7.81242756919635 89.65184092368023 3 7 0
2981 994 2 -0.35 18.720854830954963 0.8839285412666792 88.98100751321473 -3 -2 0
2980 994 1 0.7 17.83267377076486 1.5435944343783115 88.6619625910378 -3 -2 0
6544 2182 1 0.7 10.467111316370891 0.6381394654926548 88.29234879124941 -1 2 0
2982 994 2 -0.35 16.96644219361614 2.169369262827418 88.21867409102923 -3 -2 0
1558 520 1 0.7 14.216713055981739 5.6155137103167245 85.82798140960575 2 -1 0
1508 503 2 -0.35 13.324691388198435 2.561002168148951 89.51005311099695 0 1 0
4225 1409 1 0.7 13.644931887317469 7.921477032668274 93.39825203305233 1 1 0
1559 520 2 -0.35 13.74798966102707 5.022605540089845 86.71245572260045 2 -1 0
1507 503 1 0.7 14.104402452884504 1.8442919140250007 89.99124907417158 0 1 0
5793 1931 2 -0.35 16.407415983699366 3.9357858259643264 92.26988606959422 -2 1 0
1263 421 2 -0.35 11.406855415377157 2.8677762397256257 94.15113980173541 -1 0 0
5791 1931 1 0.7 15.396105307461001 4.3067841412694055 92.72930443245065 -2 1 0
4742 1581 2 -0.35 10.46005397423359 8.764701862680159 93.37952411317133 1 0 0
5152 1718 1 0.7 13.022846133559373 8.786218641627503 88.1080166415643 1 -1 0
5153 1718 2 -0.35 12.829970944635525 9.297828201098458 89.12128391966668 1 -1 0
5792 1931 2 -0.35 14.471792443696696 4.840586357580822 93.21844395804868 -2 1 0
1835 612 2 -0.35 14.886639809875009 1.6023179030639456 93.85109855823357 1 1 0
1509 503 2 -0.35 14.952741342150828 1.1877007875960834 90.40195209913021 0 1 0
720 240 2 -0.35 17.719952929763735 5.377822412421686 89.51545376999472 0 1 0
718 240 1 0.7 18.49127137022694 4.555268262522037 89.75703418575151 0 1 0
719 240 2 -0.35 19.20600320772923 3.683262279145299 90.05524690793132 0 1 0
5154 1718 2 -0.35 13.286264853345997 8.29093184264464 87.08661478553933 1 -1 0
5748 1916 2 -0.35 18.601028852187408 1.0800771936821598 92.06038572582791 8 5 1
2738 913 2 -0.35 19.183297400785293 6.018734278133278 92.65957078087655 -2 0 0
2737 913 1 0.7 18.315214948425133 5.877154068838401 93.43649170223878 -2 0 0
2732 911 2 -0.35 19.759871914325284 8.873433211848557 89.86935921683983 1 2 0
5677 1893 1 0.7 18.793454764588763 7.0197048977080545 86.88925588642067 1 1 0
5678 1893 2 -0.35 18.207361164318083 8.013624217803933 86.97317710564099 1 1 0
5679 1893 2 -0.35 19.437037863887934 6.096120960182826 86.7814530911391 1 1 0
2739 913 2 -0.35 17.47675348784246 5.87329156174332 94.22941197086591 -2 0 0
2731 911 1 0.7 20.210670894892537 7.82778207255979 89.83413021362018 1 2 0
1834 612 1 0.7 15.224534282101974 0.525176526861533 93.59666189678133 1 1 0
1335 445 2 -0.35 12.561311961627561 1.5879225135259325 85.83069423891313 -4 5 0
1333 445 1 0.7 13.532284769419416 0.9247979629881367 85.85411407173343 -4 5 0
1334 445 2 -0.35 14.471180358154392 0.2561735896534785 85.83373287017952 -4 5 0
2222 741 2 -0.35 8.449891560936145 16.456400593534447 86.08490042290377 1 0 0
1782 594 2 -0.35 3.6585247253443614 9.96989248015731 86.10634439792655 2 1 0
5985 1995 2 -0.35 8.001788587729168 13.259065904282286 85.90827955537492 2 1 0
5016 1672 2 -0.35 8.655833639417747 10.321100051257764 86.30548780179417 -2 4 0
2221 741 1 0.7 9.137180830425311 16.183565127914807 86.96115360426641 1 0 0
2171 724 2 -0.35 5.662368893630655 18.574186876770497 86.02495674741732 1 0 0
5014 1672 1 0.7 7.834554076437973 10.418847362213135 87.11416881148263 -2 4 0
5015 1672 2 -0.35 6.99540732970144 10.446623527110797 87.88371535660974 -2 4 0
4037 1346 2 -0.35 4.234994934096052 13.005738393757717 86.68675537559054 2 1 0
4036 1346 1 0.7 4.268053905757869 14.149442308637713 86.43462423721039 2 1 0
2223 741 2 -0.35 9.86804720778222 15.904698719251629 87.79055054270844 1 0 0
4038 1346 2 -0.35 4.359591696253431 15.27100689703726 86.07890282340682 2 1 0
2984 995 2 -0.35 0.6723691240293962 11.540518730656178 85.84026931615573 2 0 0
3413 1138 2 -0.35 7.663497354779016 17.887115957452234 89.56517821500859 1 0 0
3412 1138 1 0.7 6.78997246800516 17.756728869866194 90.32406078243616 1 0 0
3414 1138 2 -0.35 5.953210263955905 17.625172340035654 91.1233636361626 1 0 0
2329 777 1 0.7 6.999563169121934 13.72577574043521 89.04639679327282 1 0 0
2330 777 2 -0.35 6.671809447786098 14.421277274561337 88.19150892790188 1 0 0
4161 1387 2 -0.35 8.854066686330505 11.64637477011379 92.29567011434122 1 -1 0
4159 1387 1 0.7 9.577886336710646 12.478749906115375 91.9609043021076 1 -1 0
2331 777 2 -0.35 7.381027696328685 12.995077511506185 89.8796829521887 1 0 0
6952 2318 1 0.7 2.802547778377553 15.951206303142511 91.78979060221319 -1 1 0
6953 2318 2 -0.35 3.2725512268412786 16.62437964872495 92.62286364480536 -1 1 0
4057 1353 1 0.7 2.663603998024815 19.161382756685406 89.28965849614934 3 2 0
4059 1353 2 -0.35 2.324622418975178 19.54772752603096 88.25222260510543 3 2 0
1736 579 2 -0.35 5.3248079617654 13.201340506835395 93.45257447175703 1 2 0
1735 579 1 0.7 6.175368725111805 12.969586046954728 94.21431655730561 1 2 0
6954 2318 2 -0.35 2.264857914824213 15.314825443886397 90.96691206134392 -1 1 0
6228 2076 2 -0.35 9.61030197620714 19.307706389077588 87.64668048225556 0 2 0
3521 1174 2 -0.35 2.648615589600593 11.973022265186437 91.40942307558295 3 -1 0
3520 1174 1 0.7 3.467761436243302 12.552268115811563 90.78798498025924 3 -1 0
2060 687 2 -0.35 9.550396518612084 16.65668302956689 91.32608717978002 0 1 0
5304 1768 2 -0.35 9.982573836494574 10.462200668786073 89.26137264540458 0 1 0
3522 1174 2 -0.35 4.29049344224824 13.073968753377159 90.16132231056734 3 -1 0
5906 1969 2 -0.35 1.2782852867094592 13.824393682453316 93.54808035032163 0 2 0
3430 1144 1 0.7 6.460217544515957 18.457327135314564 93.90249201736141 2 1 0
3431 1144 2 -0.35 6.718083132879574 19.35817855499397 93.23912973458472 2 1 0
3358 1120 1 0.7 1.640084771988575 19.26629104776775 93.21997119873002 1 0 0
3360 1120 2 -0.35 2.614811869324884 19.569332430716848 93.7598250408006 1 0 0
3359 1120 2 -0.35 0.668026793143971 18.945496671319752 92.71269627928083 1 0 0
4058 1353 2 -0.35 3.0890259441219774 18.796621032832594 90.3004084130221 3 2 0
5375 1792 2 -0.35 0.9957973970665385 15.599008202837187 88.10759367081182 0 1 0
5374 1792 1 0.7 0.3973647652339636 14.648973250428623 88.43865393078974 0 1 0
5302 1768 1 0.7 9.998988773066646 11.450079355995761 88.66440229931514 0 1 0
5303 1768 2 -0.35 10.050495988678161 12.433322471399975 88.0420945131244 0 1 0
5905 1969 1 0.7 1.7127592669447889 12.835331418098711 93.96775124179457 0 2 0
6226 2076 1 0.7 8.522763747623273 19.780179710991348 87.55014489785897 0 2 0
4239 1413 2 -0.35 12.63702696380763 12.272255141357306 85.82457841432287 3 0 1
2454 818 2 -0.35 17.890564981863044 14.999699985041248 86.68495860854895 -1 1 0
2452 818 1 0.7 18.777788475543133 14.554549270415599 86.04945196629296 -1 1 0
4160 1387 2 -0.35 10.27648764238587 13.361993095704596 91.6532132884814 1 -1 0
2059 687 1 0.7 10.51981098364437 16.719654773168088 90.70323767127688 0 1 0
2370 790 2 -0.35 12.84575432694777 16.53941763069039 86.39993290451946 2 1 0
4912 1638 1 0.7 18.705249853700252 18.643060653582282 88.53382646054258 0 1 -1