LAMMPS (29 Aug 2024 - Update 1)
  using 1 OpenMP thread(s) per MPI task
using multi-threaded neighbor list subroutines
Created orthogonal box = (0 0 0) to (40 40 240)
  2 by 2 by 1 MPI processor grid
Read molecule template co2mol:
# CO2 molecule file. TraPPE-Flex model.
  1 molecules
  0 fragments
  3 atoms with max type 2
  2 bonds with max type 1
  1 angles with max type 1
  0 dihedrals with max type 0
  0 impropers with max type 0
Molecule file loaded successfully
Created 6894 atoms
  using lattice units in orthogonal box = (0 0 0) to (40 40 240)
  create_atoms CPU = 0.476 seconds
Created 78 atoms
  using lattice units in orthogonal box = (0 0 0) to (40 40 240)
  create_atoms CPU = 0.002 seconds
Created 78 atoms
  using lattice units in orthogonal box = (0 0 0) to (40 40 240)
  create_atoms CPU = 0.002 seconds
Setting atom values ...
  2350 settings made for charge
Setting atom values ...
  4700 settings made for charge
lz=240
2350 atoms in group car
4700 atoms in group oxy
Balancing ...
PPPM initialization ...
  using 12-bit tables for long-range coulomb (src/kspace.cpp:342)
  G vector (1/distance) = 0.20169663
  grid = 24 24 80
  stencil order = 5
  estimated absolute RMS force accuracy = 0.00286774
  estimated relative force accuracy = 8.6361139e-06
  using single precision FFTW3
  3d grid and FFT values/proc = 31046 11520
Generated 1 of 1 mixed pair_coeff terms from arithmetic mixing rule
Last active /omp style is kspace_style pppm/omp
Neighbor list info ...
  update: every = 1 steps, delay = 0 steps, check = yes
  max neighbors/atom: 2000, page size: 100000
  master list distance cutoff = 17
  ghost atom cutoff = 17
  binsize = 8.5, bins = 5 5 29
  1 neighbor lists, perpetual/occasional/extra = 1 0 0
  (1) pair lj/cut/coul/long/omp, perpetual
      attributes: half, newton on, omp
      pair build: half/bin/newton/omp
      stencil: half/bin/3d
      bin: standard
 rebalancing time: 0.010 seconds
  iteration count = 4
  initial/final maximal load/proc = 1796 1902
  initial/final imbalance factor  = 1.0190071 1.0791489
  x cuts: 0 0.46875 1
  y cuts: 0 0.5 1
  z cuts: 0 1
PPPM initialization ...
  using 12-bit tables for long-range coulomb (src/kspace.cpp:342)
  G vector (1/distance) = 0.20169663
  grid = 24 24 80
  stencil order = 5
  estimated absolute RMS force accuracy = 0.00286774
  estimated relative force accuracy = 8.6361139e-06
  using single precision FFTW3
  3d grid and FFT values/proc = 32680 12480
Generated 1 of 1 mixed pair_coeff terms from arithmetic mixing rule
Last active /omp style is kspace_style pppm/omp
Setting up cg style minimization ...
  Unit style    : real
  Current step  : 0
Per MPI rank memory allocation (min/avg/max) = 13.16 | 13.44 | 13.73 Mbytes
   Step          Temp          E_pair         E_mol          TotEng         Press     
         0   0              49336.872      7.9026918e-12  49336.872      43177.231    
      2347   0             -11725.545      21.631103     -11703.914     -424.40566    
Loop time of 108.157 on 4 procs for 2347 steps with 7050 atoms

99.4% CPU use with 4 MPI tasks x 1 OpenMP threads

Minimization stats:
  Stopping criterion = energy tolerance
  Energy initial, next-to-last, final = 
      49336.8715501823  -11703.9031886286  -11703.9142125068
  Force two-norm initial, final = 12256.268 9.0916246
  Force max component initial, final = 805.65186 2.6723649
  Final line search alpha, max atom move = 0.051421216 0.13741625
  Iterations, force evaluations = 2347 4638

MPI task timing breakdown:
Section |  min time  |  avg time  |  max time  |%varavg| %total
---------------------------------------------------------------
Pair    | 79.481     | 85.635     | 97.045     |  72.9 | 79.18
Bond    | 0.22861    | 0.24377    | 0.26874    |   3.1 |  0.23
Kspace  | 8.8289     | 20.306     | 26.516     | 150.6 | 18.77
Neigh   | 0.74187    | 0.75076    | 0.75962    |   1.0 |  0.69
Comm    | 0.90403    | 0.95709    | 1.0151     |   4.6 |  0.88
Output  | 0          | 0          | 0          |   0.0 |  0.00
Modify  | 0.045157   | 0.049604   | 0.053203   |   1.5 |  0.05
Other   |            | 0.2152     |            |       |  0.20

Nlocal:         1762.5 ave        1984 max        1673 min
Histogram: 2 1 0 0 0 0 0 0 0 1
Nghost:        11165.8 ave       11800 max       10574 min
Histogram: 1 0 0 1 0 1 0 0 0 1
Neighs:         914953 ave 1.04853e+06 max      848999 min
Histogram: 2 0 1 0 0 0 0 0 0 1

Total # of neighbors = 3659812
Ave neighs/atom = 519.12227
Ave special neighs/atom = 2
Neighbor list builds = 29
Dangerous builds = 0
System init for write_data ...
PPPM initialization ...
  using 12-bit tables for long-range coulomb (src/kspace.cpp:342)
  G vector (1/distance) = 0.20169663
  grid = 24 24 80
  stencil order = 5
  estimated absolute RMS force accuracy = 0.00286774
  estimated relative force accuracy = 8.6361139e-06
  using single precision FFTW3
  3d grid and FFT values/proc = 32680 12480
Generated 1 of 1 mixed pair_coeff terms from arithmetic mixing rule
Last active /omp style is kspace_style pppm/omp
#Step Pxx Pyy Pzz
#Step temp press ke pe etotal ecouple econserve
#Step px py pz COM_vx COM_vy COM_vz
PPPM initialization ...
  using 12-bit tables for long-range coulomb (src/kspace.cpp:342)
  G vector (1/distance) = 0.20169663
  grid = 24 24 80
  stencil order = 5
  estimated absolute RMS force accuracy = 0.00286774
  estimated relative force accuracy = 8.6361139e-06
  using single precision FFTW3
  3d grid and FFT values/proc = 32680 12480
Generated 1 of 1 mixed pair_coeff terms from arithmetic mixing rule
Last active /omp style is kspace_style pppm/omp
Setting up Verlet run ...
  Unit style    : real
  Current step  : 0
  Time step     : 0.5
Per MPI rank memory allocation (min/avg/max) = 12.83 | 13.15 | 13.51 Mbytes
   Step         TotEng         Press           Temp            Dt      
         0  -7081.3336      125.87737      220            0.5          
      1000  -3035.6161      1216.3218      219.18549      0.5          
      2000  -2443.9218      1165.5079      196.99497      0.5          
      3000  -1940.9035     -501.0447       212.71658      0.5          
      4000  -1852.2397      334.51708      228.51853      0.5          
      5000  -1771.4625      70.140457      223.10575      0.5          
      6000  -1504.2918     -370.50837      216.76133      0.5          
      7000  -1439.3643     -260.23918      212.33966      0.5          
      8000  -1370.4839     -40.736646      217.12668      0.5          
      9000  -1167.3668     -261.12044      221.24439      0.5          
     10000  -1011.7073     -140.58237      219.46134      0.5          
     11000  -826.41414      171.78923      219.64226      0.5          
     12000  -808.93979     -260.91559      215.13592      0.5          
     13000  -644.81327     -342.74096      220.87821      0.5          
     14000  -568.09539     -97.885528      222.87819      0.5          
     15000  -575.18168      69.983875      220.08025      0.5          
     16000  -610.59734     -234.49852      220.10013      0.5          
     17000  -567.7025      -523.24149      218.852        0.5          
     18000  -644.65736      224.60909      221.10288      0.5          
     19000  -634.48392     -144.72822      218.38389      0.5          
     20000  -677.48769     -184.41166      219.51973      0.5          
     21000  -793.19238     -18.906613      217.17727      0.5          
     22000  -788.00711     -101.86675      218.90481      0.5          
     23000  -803.25838     -28.270701      215.57404      0.5          
     24000  -803.67835     -125.65633      219.50909      0.5          
     25000  -796.22844     -203.25012      220.53305      0.5          
     26000  -762.1095      -25.855734      219.4306       0.5          
     27000  -806.97671     -153.0333       221.15267      0.5          
     28000  -851.52122     -49.03429       219.97478      0.5          
     29000  -831.21588      221.63357      219.24522      0.5          
     30000  -933.70815     -81.858594      220.0085       0.5          
     31000  -713.45995     -12.362842      223.96059      0.5          
     32000  -905.50505      45.618945      218.73583      0.5          
     33000  -905.46613     -18.21694       215.96517      0.5          
     34000  -788.33892     -164.2284       222.48273      0.5          
     35000  -935.48821      116.6937       221.18843      0.5          
     36000  -1040.6759      286.53574      218.64772      0.5          
     37000  -997.5381      -128.86321      219.14506      0.5          
     38000  -886.17169      68.67634       219.38082      0.5          
     39000  -896.7473       163.2512       221.13768      0.5          
     40000  -926.10171      31.270313      219.88703      0.5          
     41000  -935.31148     -3.3819553      220.57718      0.5          
     42000  -877.62389     -82.251696      222.52921      0.5          
     43000  -825.03747      138.87617      225.17666      0.5          
     44000  -929.98232     -34.490276      221.64099      0.5          
     45000  -952.74022     -48.636005      219.77257      0.5          
     46000  -950.38588     -15.008809      221.7128       0.5          
     47000  -961.39819     -234.54852      220.52         0.5          
     48000  -1014.0832      65.592255      222.27819      0.5          
     49000  -1074.2659      60.379077      219.32089      0.5          
     50000  -1036.8011     -110.15688      223.53185      0.5          
     51000  -1149.7224      124.36228      218.38071      0.5          
     52000  -1100.4044      105.89054      218.50051      0.5          
     53000  -1054.0099     -217.4114       216.0604       0.5          
     54000  -1023.2623     -55.326359      220.9276       0.5          
     55000  -1184.539       108.69944      216.25788      0.5          
     56000  -1143.2979      129.92881      218.68829      0.5          
     57000  -1085.4354      167.41283      220.71062      0.5          
     58000  -1109.087       290.60521      221.14463      0.5          
     59000  -1235.8372     -197.30195      219.00913      0.5          
     60000  -1300.9973      122.70815      216.34506      0.5          
     61000  -1158.802       153.45021      220.73881      0.5          
     62000  -1202.515       16.641879      218.94175      0.5          
     63000  -1211.9071      61.226853      218.64498      0.5          
     64000  -1026.5825      133.92879      223.44533      0.5          
     65000  -1059.3295     -167.50685      220.79743      0.5          
     66000  -1192.0112     -225.26225      218.47353      0.5          
     67000  -1219.2095      14.514671      217.06163      0.5          
     68000  -1094.0715      204.39711      219.73548      0.5          
     69000  -1025.4661     -87.32893       220.15644      0.5          
     70000  -938.73408     -118.61175      222.1165       0.5          
     71000  -934.03672     -7.6007459      222.47785      0.5          
     72000  -1031.2656      73.34662       219.25367      0.5          
     73000  -1021.4807      222.83837      220.07347      0.5          
     74000  -860.00481     -249.83663      222.8469       0.5          
     75000  -965.15122     -174.10694      217.88668      0.5          
     76000  -1019.5953     -65.598166      217.16502      0.5          
     77000  -1054.1052      11.545022      217.16525      0.5          
     78000  -896.73041      149.58177      216.98069      0.5          
     79000  -925.77866     -221.55882      218.93594      0.5          
     80000  -894.70224     -191.32464      219.82428      0.5          
     81000  -892.40532      0.50180838     217.62063      0.5          
     82000  -827.63696     -340.47011      222.84402      0.5          
     83000  -892.32364     -124.40183      217.47158      0.5          
     84000  -906.89763      216.09654      220.4984       0.5          
     85000  -874.99317     -109.4326       218.35016      0.5          
     86000  -954.00653      173.57063      217.15975      0.5          
     87000  -857.84819      55.033233      225.21433      0.5          
     88000  -844.49562     -472.11931      220.89953      0.5          
     89000  -938.70664      96.058773      218.33869      0.5          
     90000  -979.31663     -95.4514        217.32036      0.5          
     91000  -966.79621     -247.15904      220.53147      0.5          
     92000  -887.30726      87.885393      222.0089       0.5          
     93000  -1008.4155      411.32348      219.46917      0.5          
     94000  -966.88079     -71.745834      219.43986      0.5          
     95000  -995.4691      -219.51252      216.59056      0.5          
     96000  -1076.7424      309.24612      217.40746      0.5          
     97000  -984.1257       138.70362      218.85237      0.5          
     98000  -1014.1401     -322.90139      221.72868      0.5          
     99000  -1097.676      -4.863843       219.49895      0.5          
    100000  -1141.8554      306.96832      217.99225      0.5          
    101000  -1032.4472      7.4517496      219.81855      0.5          
    102000  -1036.0194      18.434262      218.16485      0.5          
    103000  -918.51141      105.93151      223.87212      0.5          
    104000  -1002.9974     -199.94478      221.49666      0.5          
    105000  -980.42713      64.78857       220.8469       0.5          
    106000  -1026.907       176.45548      219.20252      0.5          
    107000  -1038.3129      16.970707      220.18275      0.5          
    108000  -981.62268      104.55337      223.89887      0.5          
    109000  -1061.495      -38.401774      221.45905      0.5          
    110000  -971.46082     -158.3077       217.3643       0.5          
    111000  -875.52971      335.2123       218.47179      0.5          
    112000  -960.41962     -101.27505      221.73104      0.5          
    113000  -1055.1165      62.530468      216.65738      0.5          
    114000  -784.64879      16.647782      222.50604      0.5          
    115000  -828.41348     -22.828803      218.0579       0.5          
    116000  -766.73211      178.45026      222.46339      0.5          
    117000  -701.92263     -272.86282      221.21972      0.5          
    118000  -781.27399     -53.775082      219.55435      0.5          
    119000  -801.92606     -23.803036      219.37818      0.5          
    120000  -713.17883     -59.748513      222.61157      0.5          
    121000  -754.70638     -95.321407      220.72782      0.5          
    122000  -842.00377     -35.651635      219.69311      0.5          
    123000  -725.78933      252.76183      226.00142      0.5          
    124000  -825.7776       159.03802      219.86294      0.5          
    125000  -830.69383     -169.46619      218.12868      0.5          
    126000  -830.39294     -205.57371      220.46364      0.5          
    127000  -885.19253     -66.115998      217.72084      0.5          
    128000  -816.53266      33.155319      220.75538      0.5          
    129000  -878.26972     -43.713059      219.03012      0.5          
    130000  -706.50874     -107.39682      222.74012      0.5          
    131000  -663.39796      13.471439      229.3502       0.5          
    132000  -834.64733     -8.8472851      219.71096      0.5          
    133000  -901.55171     -193.22904      217.1285       0.5          
    134000  -994.31335      134.87251      215.6517       0.5          
    135000  -955.80613     -45.111576      220.53126      0.5          
    136000  -807.53399     -133.3465       222.47851      0.5          
    137000  -867.95908      14.529096      220.25743      0.5          
    138000  -948.85321      321.38834      220.84971      0.5          
    139000  -854.04754      255.61259      220.78137      0.5          
    140000  -781.86219     -111.22359      223.63641      0.5          
    141000  -954.57706     -62.90599       217.26527      0.5          
    142000  -901.16449     -119.85573      221.12744      0.5          
    143000  -942.504       -40.930721      217.91505      0.5          
    144000  -818.23471      147.43833      224.6901       0.5          
    145000  -919.17156     -9.9827289      216.50019      0.5          
    146000  -899.44876     -192.34508      220.16665      0.5          
    147000  -878.08085      37.154728      219.963        0.5          
    148000  -809.90944      151.89843      223.96726      0.5          
    149000  -711.7562      -88.384502      223.545        0.5          
    150000  -780.59094     -442.21013      219.81382      0.5          
    151000  -736.97299      16.844357      220.87856      0.5          
    152000  -878.42977      93.470176      221.23592      0.5          
    153000  -971.82926     -196.95648      217.16023      0.5          
    154000  -936.26768     -175.33025      218.02803      0.5          
    155000  -914.29635     -51.522807      220.73177      0.5          
    156000  -888.99137      73.247969      219.05866      0.5          
    157000  -869.75147      78.944731      218.4038       0.5          
    158000  -780.24725      282.62644      223.80663      0.5          
    159000  -899.24634     -3.2097087      221.74833      0.5          
    160000  -924.06084     -21.407388      218.79666      0.5          
    161000  -867.9952       48.688309      218.07615      0.5          
    162000  -764.82117      4.9781624      222.27288      0.5          
    163000  -824.1962      -14.368027      220.60139      0.5          
    164000  -776.50359     -37.227081      221.11727      0.5          
    165000  -776.26661     -74.207256      221.22294      0.5          
    166000  -809.41756      272.60794      220.27684      0.5          
    167000  -905.52106     -168.48542      220.24828      0.5          
    168000  -861.59355     -267.6109       220.00453      0.5          
    169000  -750.38934      226.06698      222.67636      0.5          
    170000  -856.1959       63.538284      218.70212      0.5          
    171000  -951.82326     -48.681668      221.38231      0.5          
    172000  -905.22474     -247.49263      219.9794       0.5          
    173000  -918.70216     -30.87843       220.01129      0.5          
    174000  -944.20441      218.44046      219.73581      0.5          
    175000  -861.08822     -275.81148      221.58074      0.5          
    176000  -791.03148     -211.97421      221.59158      0.5          
    177000  -874.91103      189.63333      220.51563      0.5          
    178000  -886.86221      387.5123       219.19671      0.5          
    179000  -821.4081      -305.75711      219.12264      0.5          
    180000  -877.93931     -92.041824      217.14331      0.5          
    181000  -812.94172      350.81858      221.67678      0.5          
    182000  -768.64625     -199.38953      218.58954      0.5          
    183000  -781.89781      7.8566141      218.77977      0.5          
    184000  -827.11459      291.80655      220.7698       0.5          
    185000  -786.70348     -96.125715      217.79091      0.5          
    186000  -698.1545       217.00042      223.05382      0.5          
    187000  -802.72007     -106.3548       216.47576      0.5          
    188000  -696.92933      3.0924193      223.0349       0.5          
    189000  -819.79039      13.177227      221.63849      0.5          
    190000  -844.04306     -245.57733      217.3358       0.5          
    191000  -861.81497     -208.94504      216.8256       0.5          
    192000  -810.71077      58.009302      222.47372      0.5          
    193000  -752.94488     -33.932315      222.43493      0.5          
    194000  -675.30271      220.35721      222.59049      0.5          
    195000  -831.68349     -344.84488      217.68409      0.5          
    196000  -851.46481     -106.63796      222.64447      0.5          
    197000  -836.3606       57.703438      219.38934      0.5          
    198000  -735.66598     -4.0892226      222.61883      0.5          
    199000  -774.05289      282.62329      218.85414      0.5          
    200000  -813.0835      -6.0317981      219.79798      0.5          
    201000  -833.21563     -56.726746      219.74925      0.5          
    202000  -880.56962      23.258046      220.68097      0.5          
    203000  -923.62994      115.36244      219.57541      0.5          
    204000  -899.58504      121.4938       217.37348      0.5          
    205000  -835.3167       68.77363       222.24806      0.5          
    206000  -820.15109     -212.52836      222.59615      0.5          
    207000  -927.18456     -28.078498      217.59561      0.5          
    208000  -944.33831     -123.13723      217.62259      0.5          
    209000  -995.26877      21.000248      216.83776      0.5          
    210000  -966.40686     -27.968605      220.21775      0.5          
    211000  -951.70591     -182.97757      216.25145      0.5          
    212000  -810.77766     -196.80595      220.84263      0.5          
    213000  -897.77758     -5.4951416      219.41465      0.5          
    214000  -983.50031     -38.043061      216.79784      0.5          
    215000  -852.1214      -281.46896      219.89302      0.5          
    216000  -889.61923     -32.768094      218.93199      0.5          
    217000  -798.25535      77.425709      220.68605      0.5          
    218000  -776.59393      115.24916      220.77323      0.5          
    219000  -989.00348      74.008077      216.55924      0.5          
    220000  -875.9413      -20.569852      220.24091      0.5          
    221000  -840.19853     -266.28222      219.86762      0.5          
    222000  -899.82746      38.550714      218.27528      0.5          
    223000  -771.95878      22.288875      219.2944       0.5          
    224000  -778.51103      203.84976      218.57138      0.5          
    225000  -707.77831      242.75394      220.251        0.5          
    226000  -720.5831      -105.8408       221.77814      0.5          
    227000  -660.55337     -227.58518      221.7515       0.5          
    228000  -852.92167      251.55028      216.29032      0.5          
    229000  -791.43681      136.26488      220.2298       0.5          
    230000  -758.97807     -140.25787      218.58925      0.5          
    231000  -812.37654      11.748374      222.58666      0.5          
    232000  -755.85472      186.52349      223.50506      0.5          
    233000  -822.30591     -7.1942379      219.7508       0.5          
    234000  -882.00494     -206.53722      221.60497      0.5          
    235000  -812.16292      94.873358      222.16751      0.5          
    236000  -827.07975      162.85022      222.3633       0.5          
    237000  -922.17222      62.81362       217.89923      0.5          
    238000  -820.32771      221.80234      217.09576      0.5          
    239000  -852.84333      200.87521      218.65687      0.5          
    240000  -813.19843     -90.056663      221.90787      0.5          
    241000  -782.40699     -213.39092      224.94568      0.5          
    242000  -886.82147      35.275464      219.85621      0.5          
    243000  -870.06304     -48.205192      221.33657      0.5          
    244000  -860.23015     -155.21072      221.58117      0.5          
    245000  -801.3189       254.65802      225.34157      0.5          
    246000  -904.66142     -148.3375       221.08105      0.5          
    247000  -828.83891     -227.10945      219.63541      0.5          
    248000  -897.88101      38.453897      218.07876      0.5          
    249000  -861.34176      74.881234      218.07582      0.5          
    250000  -801.7183      -194.25681      221.36886      0.5          
    251000  -918.2922      -120.06295      219.37274      0.5          
    252000  -914.81547     -26.671607      218.10257      0.5          
    253000  -821.20778      173.25997      219.20953      0.5          
    254000  -800.57478     -7.8212663      223.68839      0.5          
    255000  -907.41036     -229.65243      217.44417      0.5          
    256000  -817.89038      88.532684      221.56361      0.5          
    257000  -706.97228      87.40406       225.35228      0.5          
    258000  -770.15946     -249.55226      221.31607      0.5          
    259000  -787.41332     -101.14625      221.12603      0.5          
    260000  -767.18194     -33.246166      215.24583      0.5          
    261000  -803.23527     -102.44805      218.01539      0.5          
    262000  -767.74838     -157.11264      221.06899      0.5          
    263000  -714.94491      223.42195      221.89875      0.5          
    264000  -681.64981     -227.73508      223.16111      0.5          
    265000  -734.22873     -133.97484      222.40687      0.5          
    266000  -852.12714      60.508377      215.83985      0.5          
    267000  -791.17644     -6.8863181      222.01384      0.5          
    268000  -746.83833      16.608959      222.04819      0.5          
    269000  -765.07128      191.42665      220.64057      0.5          
    270000  -747.92107     -20.02115       221.91756      0.5          
    271000  -700.43534      1.1097551      222.47226      0.5          
    272000  -837.04256      45.003803      216.85449      0.5          
    273000  -878.03942     -221.82039      219.79608      0.5          
    274000  -807.00875      55.954065      217.42789      0.5          
    275000  -724.76054      269.08541      220.41174      0.5          
    276000  -811.7907       206.23117      219.43961      0.5          
    277000  -618.47843     -341.31687      222.51778      0.5          
    278000  -808.15944     -209.49192      220.71093      0.5          
    279000  -784.23037      295.75069      222.77714      0.5          
    280000  -885.87863     -103.85181      217.45301      0.5          
    281000  -770.73604      21.720791      221.05785      0.5          
    282000  -917.85227     -97.670718      216.79392      0.5          
    283000  -818.32559      220.15889      220.51675      0.5          
    284000  -910.83454     -45.31745       217.91907      0.5          
    285000  -804.12327     -154.98776      222.97139      0.5          
    286000  -931.91605      52.457852      216.37663      0.5          
    287000  -755.6122       13.343796      225.27865      0.5          
    288000  -780.86365      111.46651      219.63776      0.5          
    289000  -864.79347      289.90804      221.32014      0.5          
    290000  -961.03005     -145.09147      216.40946      0.5          
    291000  -790.29054      88.917101      220.07629      0.5          
    292000  -821.43562      236.71598      221.42662      0.5          
    293000  -880.61447     -54.887114      220.34032      0.5          
    294000  -989.65668     -26.070793      214.17983      0.5          
    295000  -847.055       -50.760951      217.44147      0.5          
    296000  -848.73999     -300.36955      221.19762      0.5          
    297000  -935.25539     -133.22132      217.7954       0.5          
    298000  -886.36072      96.20079       218.6927       0.5          
    299000  -906.19888      196.81469      220.36051      0.5          
    300000  -738.80993      32.726838      222.78264      0.5          
    301000  -871.31787     -210.55468      219.35932      0.5          
    302000  -832.89081      9.9068932      218.95622      0.5          
    303000  -872.50996     -19.159293      219.39704      0.5          
    304000  -878.17935     -274.31637      219.4668       0.5          
    305000  -846.08701     -36.759135      217.40214      0.5          
    306000  -884.88004      43.953075      217.90974      0.5          
    307000  -934.18353     -345.22777      219.04735      0.5          
    308000  -995.60666      104.07719      217.21366      0.5          
    309000  -919.49922      194.76356      216.20003      0.5          
    310000  -886.25784     -153.33001      218.26557      0.5          
    311000  -907.53842     -201.58147      218.29871      0.5          
    312000  -780.40069     -104.38719      221.88092      0.5          
    313000  -847.21453      437.36511      219.27281      0.5          
    314000  -817.32629      131.90714      218.94097      0.5          
    315000  -668.87132      236.52732      223.54618      0.5          
    316000  -756.95665      134.80824      219.61886      0.5          
    317000  -719.26632     -283.44465      222.20324      0.5          
    318000  -816.48177      181.56389      220.62989      0.5          
    319000  -829.9026      -176.04496      221.30085      0.5          
    320000  -826.59769     -65.643686      220.91958      0.5          
    321000  -861.44079      56.961056      215.84868      0.5          
    322000  -854.22464      193.1425       217.26972      0.5          
    323000  -877.43706      101.19978      219.77891      0.5          
    324000  -782.49463      64.716404      220.00441      0.5          
    325000  -907.08042      82.920446      216.83379      0.5          
    326000  -921.16539     -56.437529      216.02959      0.5          
    327000  -826.34123      34.844197      219.11053      0.5          
    328000  -745.83319      167.24857      221.03493      0.5          
    329000  -830.68404      49.408827      222.23157      0.5          
    330000  -827.90057     -298.76159      217.25217      0.5          
    331000  -735.16182      70.001256      223.28098      0.5          
    332000  -919.29687      51.412836      215.96852      0.5          
    333000  -895.30372     -75.132774      218.40741      0.5          
    334000  -809.40242     -16.829096      218.15126      0.5          
    335000  -808.31188      34.599746      219.74393      0.5          
    336000  -731.23061      157.60501      221.02685      0.5          
    337000  -847.5706       149.69375      220.13534      0.5          
    338000  -967.05486     -44.385013      216.84448      0.5          
    339000  -763.52938      68.107523      222.71983      0.5          
    340000  -805.66295     -172.33404      222.25799      0.5          
    341000  -856.93896      86.518572      220.06562      0.5          
    342000  -876.91059      5.2063606      217.152        0.5          
    343000  -883.16692     -134.66657      219.73646      0.5          
    344000  -928.8147       103.3511       216.0398       0.5          
    345000  -778.38986     -16.72032       222.15187      0.5          
    346000  -785.10306     -87.114408      222.0617       0.5          
    347000  -856.42092      87.059212      220.71715      0.5          
    348000  -906.90159     -181.57261      214.43398      0.5          
    349000  -1002.5492      366.87204      217.30498      0.5          
    350000  -896.02635      131.29236      219.28789      0.5          
    351000  -928.37475     -305.94086      218.95348      0.5          
    352000  -978.22255      160.28884      216.42423      0.5          
    353000  -851.86794      103.67983      220.77714      0.5          
    354000  -706.90344     -53.900682      226.05168      0.5          
    355000  -721.69292      33.690234      224.32138      0.5          
    356000  -771.90567      134.6515       222.74814      0.5          
    357000  -776.31638      144.21767      222.39409      0.5          
    358000  -907.21952     -278.9936       220.45288      0.5          
    359000  -885.44336      7.1982188      221.66952      0.5          
    360000  -869.33626      44.048441      220.65436      0.5          
    361000  -919.04942     -115.60424      218.4409       0.5          
    362000  -849.27264     -144.49145      219.34511      0.5          
    363000  -820.51309      93.252469      222.2698       0.5          
    364000  -866.40746     -196.25858      221.44684      0.5          
    365000  -922.97367      32.085322      220.64955      0.5          
    366000  -899.51971     -42.871522      218.26858      0.5          
    367000  -949.9446      -392.3104       218.98919      0.5          
    368000  -967.27254     -35.57011       218.40065      0.5          
    369000  -866.35546      308.7613       220.92197      0.5          
    370000  -799.06848     -183.14751      218.97828      0.5          
    371000  -742.20037     -109.41591      221.69542      0.5          
    372000  -950.02165      136.42786      218.70098      0.5          
    373000  -836.95894      6.9018575      217.74072      0.5          
    374000  -892.14573     -56.992184      217.66601      0.5          
    375000  -776.88917     -83.833818      219.66385      0.5          
    376000  -801.01442      7.6976505      221.11844      0.5          
    377000  -789.6544       194.05332      223.3207       0.5          
    378000  -819.71471      55.745205      219.06744      0.5          
    379000  -825.62084     -221.54132      220.88104      0.5          
    380000  -840.67271     -18.312951      221.26227      0.5          
    381000  -775.91602      207.86836      222.22328      0.5          
    382000  -933.94415      63.312209      218.96822      0.5          
    383000  -829.5018      -37.738755      218.06887      0.5          
    384000  -866.77283     -32.942979      219.43026      0.5          
    385000  -879.62407     -140.53562      218.9682       0.5          
    386000  -822.87868      271.55901      224.29233      0.5          
    387000  -839.71652      205.35906      219.42076      0.5          
    388000  -927.36419     -7.2306315      219.99106      0.5          
    389000  -979.6036       38.388053      219.48772      0.5          
    390000  -914.4575       237.80002      219.17803      0.5          
    391000  -840.37463     -29.096379      223.49906      0.5          
    392000  -922.03282      2.4535114      218.02748      0.5          
    393000  -852.74221     -10.395132      222.37441      0.5          
    394000  -890.47123      105.37364      218.25939      0.5          
    395000  -762.98203     -94.063727      222.70169      0.5          
    396000  -926.34191     -52.796116      219.16432      0.5          
    397000  -809.50202      162.86587      222.23271      0.5          
    398000  -998.98669     -16.992035      216.95115      0.5          
    399000  -954.59705      244.23317      216.46609      0.5          
    400000  -767.12111      146.13813      222.88647      0.5          
    401000  -848.72037     -43.748425      219.27707      0.5          
    402000  -917.54427     -207.02064      219.57314      0.5          
    403000  -896.27337      115.0703       219.46699      0.5          
    404000  -865.70026     -67.778329      218.23003      0.5          
    405000  -869.9405      -213.66866      220.51571      0.5          
    406000  -860.63459     -89.119549      216.09168      0.5          
    407000  -801.70231      8.4409373      220.5318       0.5          
    408000  -806.1157      -434.38847      221.78203      0.5          
    409000  -875.5292      -106.9014       219.74282      0.5          
    410000  -805.7439       394.31103      219.58306      0.5          
    411000  -808.44375     -118.40759      221.45934      0.5          
    412000  -745.26052     -32.077962      222.28739      0.5          
    413000  -770.90023     -103.64315      220.91761      0.5          
    414000  -773.28603      72.832864      219.74156      0.5          
    415000  -868.88365     -87.799922      216.93902      0.5          
    416000  -830.63715      104.29221      216.80652      0.5          
    417000  -861.91567      28.67371       218.97693      0.5          
    418000  -820.13592     -83.146937      219.10162      0.5          
    419000  -831.83339     -376.21251      220.03744      0.5          
    420000  -807.28946     -41.909748      219.53378      0.5          
    421000  -856.12777      45.037945      217.97511      0.5          
    422000  -828.99651     -46.98585       220.1097       0.5          
    423000  -808.87685      259.93745      221.97496      0.5          
    424000  -766.48764      67.644351      221.37443      0.5          
    425000  -730.23122     -80.014491      223.98723      0.5          
    426000  -822.45906     -108.0005       218.46289      0.5          
    427000  -803.18553     -74.753746      223.05235      0.5          
    428000  -934.96268     -34.088944      217.50626      0.5          
    429000  -779.81943      174.73707      221.14338      0.5          
    430000  -786.58981      339.12469      222.2161       0.5          
    431000  -789.88484      67.088139      221.86694      0.5          
    432000  -932.94049     -96.479672      217.88206      0.5          
    433000  -788.9654       21.208781      221.30999      0.5          
    434000  -920.08091      70.16338       218.1581       0.5          
    435000  -912.29708     -14.464969      220.63407      0.5          
    436000  -786.16782     -10.4395        222.88494      0.5          
    437000  -784.31973      182.97716      219.57382      0.5          
    438000  -793.15803     -50.133185      220.04991      0.5          
    439000  -816.27997     -322.29157      218.83545      0.5          
    440000  -837.04593      94.237967      218.03082      0.5          
    441000  -802.39533      185.52635      221.00832      0.5          
    442000  -707.2443      -120.9215       220.90814      0.5          
    443000  -753.71634      173.82126      222.48626      0.5          
    444000  -618.45509     -119.22079      221.59209      0.5          
    445000  -879.10682     -103.73678      218.70607      0.5          
    446000  -830.65169      116.90731      216.32344      0.5          
    447000  -664.66825      128.52096      224.2066       0.5          
    448000  -851.93926     -274.63697      217.62984      0.5          
    449000  -858.96956     -23.220135      220.8056       0.5          
    450000  -826.73806      118.63643      218.7256       0.5          
    451000  -896.55609     -160.23024      214.77623      0.5          
    452000  -703.34674     -99.343573      223.82812      0.5          
    453000  -716.96886     -2.2100949      222.95068      0.5          
    454000  -762.50334     -10.675149      219.63617      0.5          
    455000  -744.9659      -122.06012      220.49742      0.5          
    456000  -727.58944     -46.174964      222.38587      0.5          
    457000  -697.80262     -48.836327      219.96532      0.5          
    458000  -707.14577      123.07013      223.07653      0.5          
    459000  -812.59637      122.23074      217.7996       0.5          
    460000  -775.73503      105.37873      221.29669      0.5          
    461000  -812.99265      95.133395      220.42589      0.5          
    462000  -811.87825      6.348962       216.82086      0.5          
    463000  -701.90354      209.68037      223.23497      0.5          
    464000  -789.28151     -250.52529      221.72429      0.5          
    465000  -734.61167     -164.9602       222.22469      0.5          
    466000  -808.91533      375.4665       220.28535      0.5          
    467000  -781.65137     -14.88815       218.84558      0.5          
    468000  -902.70191     -201.4615       219.11975      0.5          
    469000  -830.42093      109.24116      220.33475      0.5          
    470000  -745.47596      116.7723       220.87001      0.5          
    471000  -756.19518      60.916613      222.76608      0.5          
    472000  -798.5825       113.23935      216.10825      0.5          
    473000  -850.63019      1.6624766      217.85919      0.5          
    474000  -652.25582     -193.944        221.78676      0.5          
    475000  -640.28769      43.005237      220.80558      0.5          
    476000  -682.24619      286.14695      222.36873      0.5          
    477000  -692.83369     -120.03531      221.59924      0.5          
    478000  -634.05515     -227.84441      220.40984      0.5          
    479000  -700.97142      122.34593      218.91546      0.5          
    480000  -696.02951      41.602218      218.76024      0.5          
    481000  -777.13133     -93.958692      217.27535      0.5          
    482000  -669.86535      33.010031      222.18285      0.5          
    483000  -802.18824      182.98548      218.16755      0.5          
    484000  -740.46064     -147.45574      220.98623      0.5          
    485000  -774.96737     -62.652034      218.92597      0.5          
    486000  -711.10394      284.16395      221.93734      0.5          
    487000  -793.3548       19.753154      222.16126      0.5          
    488000  -802.80832     -283.91839      220.41678      0.5          
    489000  -856.1983       198.07424      219.90393      0.5          
    490000  -983.16964     -74.772505      215.81581      0.5          
    491000  -887.56161     -156.93008      215.33725      0.5          
    492000  -861.135       -151.29651      219.11098      0.5          
    493000  -801.28771      103.72323      219.60302      0.5          
    494000  -778.87985     -235.19091      220.89585      0.5          
    495000  -959.69991     -204.14935      214.53233      0.5          
    496000  -893.13056     -7.2102524      217.50839      0.5          
    497000  -739.22845      33.788774      222.13326      0.5          
    498000  -722.56922      217.81937      222.88707      0.5          
    499000  -667.42697     -54.446928      221.8221       0.5          
    500000  -790.82071     -69.80227       221.67785      0.5          
    501000  -837.73645     -104.81114      218.11477      0.5          
    502000  -815.23669      243.93398      218.91112      0.5          
    503000  -722.3643      -20.072475      221.79592      0.5          
    504000  -845.2132      -108.91576      218.8404       0.5          
    505000  -795.53053      161.13734      217.37199      0.5          
    506000  -701.81976      306.26376      222.22169      0.5          
    507000  -770.77607     -127.90873      221.1563       0.5          
    508000  -766.73269     -81.125746      220.56495      0.5          
    509000  -795.41618     -82.640309      219.35546      0.5          
    510000  -936.17121     -55.368262      214.39986      0.5          
    511000  -849.51764      154.52734      217.96659      0.5          
    512000  -734.28015      18.787514      222.28541      0.5          
    513000  -748.8545      -134.7837       218.0939       0.5          
    514000  -849.83879     -28.17873       215.43566      0.5          
    515000  -820.32991     -14.037976      217.90328      0.5          
    516000  -822.58122      197.54658      219.71506      0.5          
    517000  -774.02748     -105.1922       221.0982       0.5          
    518000  -859.41389     -210.71475      218.61033      0.5          
    519000  -826.20943      4.1837067      219.10393      0.5          
    520000  -936.27115      83.6722        218.96759      0.5          
    521000  -791.83416      146.33845      224.62285      0.5          
    522000  -884.47017      400.88534      219.30254      0.5          
    523000  -795.26995     -56.823361      221.09645      0.5          
    524000  -954.67639     -74.949896      215.90931      0.5          
    525000  -859.82351      173.06571      220.71189      0.5          
    526000  -863.67278      171.02696      221.06778      0.5          
    527000  -845.01221     -202.77389      222.08239      0.5          
    528000  -921.10048     -86.186949      217.74191      0.5          
    529000  -938.41901     -35.567085      220.79354      0.5          
    530000  -846.45118      96.904568      218.21651      0.5          
    531000  -813.82187      435.69152      217.18863      0.5          
    532000  -793.28942     -248.80967      219.40156      0.5          
    533000  -771.14156     -306.2586       222.44059      0.5          
    534000  -806.52652      284.37523      220.25323      0.5          
    535000  -807.50575     -84.612039      218.45876      0.5          
    536000  -829.89375     -304.55704      220.01535      0.5          
    537000  -786.0633       91.254589      218.79373      0.5          
    538000  -696.06238      172.41694      224.33236      0.5          
    539000  -770.93345      43.263925      221.18471      0.5          
    540000  -754.65532      103.59901      224.30235      0.5          
    541000  -775.24946     -129.98578      220.33935      0.5          
    542000  -705.41362     -12.377829      222.16407      0.5          
    543000  -685.12203     -28.731038      222.59433      0.5          
    544000  -810.07752      217.56079      218.52411      0.5          
    545000  -600.2365       87.041017      223.88786      0.5          
    546000  -637.79102     -197.88381      219.39197      0.5          
    547000  -733.68932     -73.185618      220.26113      0.5          
    548000  -813.80842      35.80913       217.4799       0.5          
    549000  -734.77798     -22.992692      219.41674      0.5          
    550000  -806.30028      106.69594      218.83759      0.5          
    551000  -853.71798      25.652807      218.19114      0.5          
    552000  -727.4263       86.732287      221.50277      0.5          
    553000  -706.93038      27.321247      222.04301      0.5          
    554000  -697.93689      234.43955      221.57462      0.5          
    555000  -749.82633      288.68078      219.78425      0.5          
    556000  -878.68063     -250.05681      219.44835      0.5          
    557000  -853.19822     -79.965724      219.53323      0.5          
    558000  -822.12345      197.13588      219.29777      0.5          
    559000  -827.52664      26.213126      220.63299      0.5          
    560000  -870.38486     -168.97122      221.22982      0.5          
    561000  -776.075        325.84074      221.12012      0.5          
    562000  -791.03636      125.9603       219.85786      0.5          
    563000  -771.93203     -326.34157      220.8887       0.5          
    564000  -800.03118     -160.81482      218.22435      0.5          
    565000  -758.33974      137.88372      222.5809       0.5          
    566000  -679.93288      227.82815      223.08379      0.5          
    567000  -835.34725      20.24754       216.70809      0.5          
    568000  -743.03698     -87.294016      222.99627      0.5          
    569000  -732.62452      25.065521      222.34673      0.5          
    570000  -723.67669      201.16149      220.81401      0.5          
    571000  -790.60125      115.09812      219.64735      0.5          
    572000  -824.97924      148.43345      219.40504      0.5          
    573000  -764.81707     -67.177161      221.57587      0.5          
    574000  -783.90946      133.41026      222.47944      0.5          
    575000  -744.09678      132.4172       222.95141      0.5          
    576000  -751.20327      80.77341       220.74355      0.5          
    577000  -791.5719      -15.67709       220.55608      0.5          
    578000  -730.01317     -5.0329728      220.42403      0.5          
    579000  -792.23044      16.80419       217.29232      0.5          
    580000  -864.73017     -180.93463      218.43285      0.5          
    581000  -767.53103      103.14116      217.90719      0.5          
    582000  -759.50112      40.874732      217.99405      0.5          
    583000  -811.31138     -233.18783      218.60997      0.5          
    584000  -773.36125      65.410518      219.92202      0.5          
    585000  -642.36213     -62.433667      222.72347      0.5          
    586000  -746.80218     -152.33306      217.40344      0.5          
    587000  -712.43277      162.78295      219.00098      0.5          
    588000  -798.52494     -52.654608      218.47534      0.5          
    589000  -675.48358     -154.68826      223.56545      0.5          
    590000  -835.08469     -18.381269      216.36898      0.5          
    591000  -771.03485      156.2862       221.408        0.5          
    592000  -798.81666     -121.67657      219.47051      0.5          
    593000  -735.98975      141.80082      220.99974      0.5          
    594000  -843.71277     -25.69257       217.82127      0.5          
    595000  -710.55763     -250.82289      223.09878      0.5          
    596000  -709.46909     -75.890069      221.28148      0.5          
    597000  -799.67169      193.31941      219.91886      0.5          
    598000  -835.42365      46.897225      218.48869      0.5          
    599000  -616.57288     -114.44521      222.46373      0.5          
    600000  -778.70516     -78.137193      220.41749      0.5          
    601000  -842.54896     -5.1979755      217.77845      0.5          
    602000  -752.38374      81.813712      221.0074       0.5          
    603000  -901.90841     -67.544836      214.82292      0.5          
    604000  -880.28757      118.69579      222.83291      0.5          
    605000  -761.99307      46.697082      222.51918      0.5          
    606000  -764.8727      -272.55075      222.36914      0.5          
    607000  -805.56401      131.1155       220.24497      0.5          
    608000  -912.52361     -18.016975      219.01833      0.5          
    609000  -909.27039     -188.3002       218.33465      0.5          
    610000  -834.69498      144.82884      221.28692      0.5          
    611000  -849.51184      141.79997      217.29601      0.5          
    612000  -728.81744      58.519232      220.18623      0.5          
    613000  -829.43827     -241.01026      219.17282      0.5          
    614000  -797.64948     -13.667543      219.43095      0.5          
    615000  -785.99871     -17.217042      222.67201      0.5          
    616000  -793.9206       187.128        220.40414      0.5          
    617000  -799.70343      86.728785      218.20556      0.5          
    618000  -768.14399      144.10745      216.27968      0.5          
    619000  -804.24022     -124.8076       217.16525      0.5          
    620000  -787.5714      -157.42618      219.60979      0.5          
    621000  -689.65715     -35.746232      221.11855      0.5          
    622000  -705.21776      54.354395      222.12448      0.5          
    623000  -793.61089     -42.107235      217.47834      0.5          
    624000  -708.03072     -68.502761      221.1894       0.5          
    625000  -743.41773     -112.5538       217.92453      0.5          
    626000  -624.47932     -16.711782      222.30859      0.5          
    627000  -676.62879     -406.21871      219.10411      0.5          
    628000  -655.47756     -64.228018      220.98059      0.5          
    629000  -657.18985      65.55051       219.80564      0.5          
    630000  -652.24893      89.684401      223.81953      0.5          
    631000  -604.05093      115.93948      220.94393      0.5          
    632000  -763.85852     -347.61375      217.95724      0.5          
    633000  -694.15085     -247.01194      222.61516      0.5          
    634000  -716.71706     -91.090752      220.55293      0.5          
    635000  -745.44865     -45.548102      217.65509      0.5          
    636000  -881.25572      207.72883      216.19193      0.5          
    637000  -724.12491      223.27942      222.30896      0.5          
    638000  -747.45811     -186.4292       221.46773      0.5          
    639000  -765.40427     -210.37555      219.49284      0.5          
    640000  -834.21882     -54.904905      219.87629      0.5          
    641000  -716.68787      224.16344      223.89678      0.5          
    642000  -690.77309      0.34013404     223.76834      0.5          
    643000  -769.62161      128.87626      221.68492      0.5          
    644000  -781.08416     -40.095232      220.75842      0.5          
    645000  -718.53382      227.70886      219.35542      0.5          
    646000  -733.08927      20.295289      221.84939      0.5          
    647000  -754.49617     -2.0775423      222.79371      0.5          
    648000  -888.05755      188.81602      219.07362      0.5          
    649000  -762.00853     -162.21865      225.58244      0.5          
    650000  -760.20024     -92.797181      219.87918      0.5          
    651000  -838.51902      300.32238      216.95898      0.5          
    652000  -721.22063     -111.09958      219.75761      0.5          
    653000  -852.21514     -145.59196      215.84193      0.5          
    654000  -748.1947      -154.48271      218.32032      0.5          
    655000  -776.55874      40.146359      220.4802       0.5          
    656000  -670.70974     -89.006919      220.91822      0.5          
    657000  -795.41971     -120.88204      216.00403      0.5          
    658000  -743.2717      -12.781124      218.29427      0.5          
    659000  -774.02074      29.115306      220.75251      0.5          
    660000  -777.19935     -39.917014      219.40877      0.5          
    661000  -653.14341     -160.04925      222.97767      0.5          
    662000  -777.72163      57.825899      218.66392      0.5          
    663000  -735.41135     -284.39922      219.95669      0.5          
    664000  -740.00663      232.57846      220.804        0.5          
    665000  -677.29842      177.9711       219.03536      0.5          
    666000  -724.90595     -62.254262      220.70392      0.5          
    667000  -628.81671     -113.09087      221.13799      0.5          
    668000  -730.76074      211.36047      220.32457      0.5          
    669000  -752.79385      12.790061      220.82025      0.5          
    670000  -699.13798     -115.66681      219.34262      0.5          
    671000  -702.29055      1.4586205      217.67586      0.5          
    672000  -685.41951      182.43237      217.47506      0.5          
    673000  -775.76681     -109.08353      221.42648      0.5          
    674000  -619.30133     -226.152        220.78796      0.5          
    675000  -763.69661      68.049576      218.29366      0.5          
    676000  -803.68214      19.16166       216.69857      0.5          
    677000  -835.91501     -113.29935      218.57461      0.5          
    678000  -698.63248      1.0626463      221.21502      0.5          
    679000  -792.48333      116.26928      218.67308      0.5          
    680000  -728.47416      142.09708      222.83816      0.5          
    681000  -782.04793      180.01403      220.24021      0.5          
    682000  -740.30974     -68.16474       219.1905       0.5          
    683000  -797.69344     -170.31946      217.34665      0.5          
    684000  -857.09906     -189.28178      216.2104       0.5          
    685000  -717.28119      165.58119      220.43139      0.5          
    686000  -815.5179      -86.145216      220.66434      0.5          
    687000  -825.14534      58.747488      219.82745      0.5          
    688000  -811.16112      268.53092      217.90226      0.5          
    689000  -701.7435      -13.629451      222.05064      0.5          
    690000  -757.20541     -47.754838      223.67174      0.5          
    691000  -838.47606      3.3557285      222.08409      0.5          
    692000  -948.98891     -125.33622      215.2917       0.5          
    693000  -738.71107     -84.422039      219.82295      0.5          
    694000  -737.19351      140.35536      218.77543      0.5          
    695000  -764.70395     -34.974103      220.40898      0.5          
    696000  -626.18857     -246.38008      223.52236      0.5          
    697000  -675.39919      151.34233      221.19798      0.5          
    698000  -757.57604     -64.244947      221.56728      0.5          
    699000  -712.8854      -99.702759      220.83428      0.5          
    700000  -776.38146      235.21206      216.87325      0.5          
    701000  -673.19041      284.04647      220.68819      0.5          
    702000  -709.12736     -230.88989      221.21543      0.5          
    703000  -739.33888     -44.699877      223.94105      0.5          
    704000  -677.21151      69.382954      223.44152      0.5          
    705000  -840.84269     -28.431796      216.39254      0.5          
    706000  -730.73755     -30.35931       221.02697      0.5          
    707000  -778.31934     -181.77225      215.75293      0.5          
    708000  -751.98688      128.65073      219.14096      0.5          
    709000  -710.9159      -25.525669      223.95616      0.5          
    710000  -723.04501     -108.26005      222.51547      0.5          
    711000  -697.8965      -330.72259      222.37686      0.5          
    712000  -690.92964     -250.48941      223.23574      0.5          
    713000  -790.79368     -96.226895      219.08591      0.5          
    714000  -728.54004     -296.26639      221.07249      0.5          
    715000  -760.74713      135.7447       218.75642      0.5          
    716000  -831.60756      37.760676      219.14892      0.5          
    717000  -729.05586     -214.72564      221.53084      0.5          
    718000  -742.29724      205.98152      219.13465      0.5          
    719000  -854.1979       150.85116      216.47885      0.5          
    720000  -885.08661      102.38691      217.37375      0.5          
    721000  -792.40602     -95.769331      219.98557      0.5          
    722000  -738.10593     -199.56177      219.67912      0.5          
    723000  -758.29482      15.649507      220.98149      0.5          
    724000  -722.92277     -160.78641      224.58171      0.5          
    725000  -768.53487     -162.40244      219.16396      0.5          
    726000  -787.48613      71.793306      218.30833      0.5          
    727000  -834.58151      199.07822      216.09755      0.5          
    728000  -768.61588     -176.33996      218.78471      0.5          
    729000  -605.07696      54.599436      224.70766      0.5          
    730000  -679.82803      174.51891      223.16108      0.5          
    731000  -705.70556     -260.71991      220.38841      0.5          
    732000  -911.86472     -224.85673      215.78582      0.5          
    733000  -749.23403      160.02507      222.48214      0.5          
    734000  -683.7023       26.404907      223.5529       0.5          
    735000  -712.51738     -64.042438      220.59932      0.5          
    736000  -680.59514     -310.15243      220.46958      0.5          
    737000  -683.84986      159.75036      223.33735      0.5          
    738000  -736.54858      237.14696      218.84254      0.5          
    739000  -721.99032     -72.74128       220.6264       0.5          
    740000  -660.35998      19.251944      222.79701      0.5          
    741000  -797.48796      19.516555      217.14221      0.5          
    742000  -590.29298      103.32399      223.49575      0.5          
    743000  -741.88797      70.510095      223.14381      0.5          
    744000  -867.42093     -39.229579      217.45061      0.5          
    745000  -759.30268     -19.006717      221.24415      0.5          
    746000  -555.49819      323.97744      223.59685      0.5          
    747000  -691.34526     -299.54028      220.08139      0.5          
    748000  -743.50003     -300.96833      220.54319      0.5          
    749000  -742.13739      21.189285      220.62714      0.5          
    750000  -700.18805      39.398097      220.102        0.5          
    751000  -696.37071     -281.20839      221.35283      0.5          
    752000  -574.13177     -97.861882      224.79033      0.5          
    753000  -772.03093      7.8657001      217.55354      0.5          
    754000  -823.74291     -82.462682      214.76789      0.5          
    755000  -621.35752      11.280898      223.00194      0.5          
    756000  -803.9108       22.457415      219.03692      0.5          
    757000  -777.70469      31.816608      217.15318      0.5          
    758000  -775.95145     -143.62839      219.71342      0.5          
    759000  -566.59433      51.847804      225.48035      0.5          
    760000  -667.45252      80.45665       222.01015      0.5          
    761000  -689.13946     -138.91717      219.78358      0.5          
    762000  -619.41612      294.58146      221.27735      0.5          
    763000  -696.71373      71.973307      222.60859      0.5          
    764000  -682.17336     -28.441377      223.45029      0.5          
    765000  -782.81787     -63.967838      219.8237       0.5          
    766000  -744.66762     -303.35127      219.03535      0.5          
    767000  -774.11879      23.621218      218.4959       0.5          
    768000  -785.3018      -239.9451       217.90197      0.5          
    769000  -746.97793     -35.133281      220.43974      0.5          
    770000  -800.48952      129.90893      218.52061      0.5          
    771000  -726.64582     -190.59211      221.52048      0.5          
    772000  -813.33716      94.509091      219.5566       0.5          
    773000  -712.80183      287.66426      220.06201      0.5          
    774000  -830.95665     -241.73198      215.322        0.5          
    775000  -769.83654     -197.32324      221.90573      0.5          
    776000  -765.43918      130.49588      220.38391      0.5          
    777000  -792.24048      158.80366      218.86533      0.5          
    778000  -798.45523      132.53413      220.51051      0.5          
    779000  -768.38427     -28.466306      222.0419       0.5          
    780000  -788.59654      190.77132      218.36328      0.5          
    781000  -769.65704      513.12297      219.23829      0.5          
    782000  -867.23924     -116.89423      218.82065      0.5          
    783000  -743.68703     -182.88558      222.69264      0.5          
    784000  -837.49751      486.2433       217.18324      0.5          
    785000  -818.07531     -12.594559      219.4363       0.5          
    786000  -731.55987     -104.32198      222.25174      0.5          
    787000  -831.75462      194.97727      216.66692      0.5          
    788000  -745.23532      96.733019      220.19891      0.5          
    789000  -704.6157       298.31525      221.36866      0.5          
    790000  -803.87839     -3.3238061      216.86246      0.5          
    791000  -701.77304      86.339406      218.51768      0.5          
    792000  -619.41225     -155.76168      222.44385      0.5          
    793000  -618.15875     -111.84209      221.99985      0.5          
    794000  -618.54641      58.799232      222.6394       0.5          
    795000  -671.21709     -89.499041      221.20744      0.5          
    796000  -641.22304     -8.3370374      221.49219      0.5          
    797000  -721.45075      72.850052      219.22884      0.5          
    798000  -666.6706       39.466151      217.5775       0.5          
    799000  -751.30818      47.955085      220.88583      0.5          
    800000  -585.58701      73.863532      219.96954      0.5          
    801000  -692.75575     -55.807004      220.59021      0.5          
    802000  -613.7492      -11.731109      222.00326      0.5          
    803000  -742.73674      255.0325       219.11466      0.5          
    804000  -752.81557      105.18067      220.10129      0.5          
    805000  -788.793       -243.98577      218.15453      0.5          
    806000  -809.32707      78.431492      216.89967      0.5          
    807000  -785.07775      265.09383      219.53686      0.5          
    808000  -739.59464     -318.89893      219.69956      0.5          
    809000  -736.67964     -88.493095      221.43063      0.5          
    810000  -943.07433      68.741953      213.08029      0.5          
    811000  -812.29066      53.088747      221.38007      0.5          
    812000  -838.4386       100.12615      220.76109      0.5          
    813000  -822.45224     -8.2230189      221.25827      0.5          
    814000  -865.45776      41.85675       219.72142      0.5          
    815000  -862.53574      89.236954      221.25536      0.5          
    816000  -868.26375      154.76058      216.49153      0.5          
    817000  -933.77394      216.62636      217.34618      0.5          
    818000  -747.33        -138.62927      224.13085      0.5          
    819000  -906.75168     -188.41795      217.03533      0.5          
    820000  -870.28706      28.029474      217.05696      0.5          
    821000  -914.74965     -272.90474      216.85231      0.5          
    822000  -773.94586     -3.6886481      222.66539      0.5          
    823000  -879.88308     -10.044743      219.43577      0.5          
    824000  -876.09446      67.564328      219.86835      0.5          
    825000  -867.64275      0.087612229    218.87338      0.5          
    826000  -629.89421      119.12934      224.22706      0.5          
    827000  -772.21754     -20.891366      219.01874      0.5          
    828000  -783.24122     -4.7469861      221.76704      0.5          
    829000  -732.24846      187.71641      221.77989      0.5          
    830000  -777.81742     -269.15635      218.69398      0.5          
    831000  -742.23224     -128.76958      217.9297       0.5          
    832000  -756.50313      195.16107      221.30566      0.5          
    833000  -678.83202     -167.7676       220.95333      0.5          
    834000  -635.87967     -171.29165      221.92725      0.5          
    835000  -691.14498     -151.70073      219.01254      0.5          
    836000  -730.53491     -168.55657      218.45034      0.5          
    837000  -836.22376     -193.34274      216.52337      0.5          
    838000  -639.20122      67.870336      220.43567      0.5          
    839000  -742.51382     -2.5829015      218.25458      0.5          
    840000  -668.82429     -20.995943      221.03455      0.5          
    841000  -522.67162     -113.29539      223.32483      0.5          
    842000  -678.03088     -19.56142       218.34055      0.5          
    843000  -591.68191      21.497749      221.15832      0.5          
    844000  -571.29077     -42.079245      223.79496      0.5          
    845000  -650.62086     -109.08955      218.89008      0.5          
    846000  -717.21846      142.74765      220.46307      0.5          
    847000  -815.90503     -29.998295      217.43841      0.5          
    848000  -732.18679     -20.24218       220.06155      0.5          
    849000  -694.90919      157.15329      221.14744      0.5          
    850000  -755.86118     -224.6401       220.98852      0.5          
    851000  -642.30349      52.387889      224.23138      0.5          
    852000  -626.7379       35.614306      223.37411      0.5          
    853000  -746.87183     -491.70143      221.24888      0.5          
    854000  -847.00835     -165.01004      220.31852      0.5          
    855000  -760.94108      194.06708      223.03116      0.5          
    856000  -849.01323     -139.90471      216.79333      0.5          
    857000  -762.39698     -83.642319      221.10878      0.5          
    858000  -756.47155      125.43462      222.99643      0.5          
    859000  -975.22921      35.787985      216.2129       0.5          
    860000  -912.16612     -164.95561      217.70587      0.5          
    861000  -782.83066      60.927743      223.14385      0.5          
    862000  -846.37711      153.08511      218.40222      0.5          
    863000  -807.41099      245.36821      222.20334      0.5          
    864000  -785.05037     -99.248408      219.66515      0.5          
    865000  -797.94256      37.68661       220.49313      0.5          
    866000  -824.94492      185.61291      221.31851      0.5          
    867000  -711.94298      29.821567      224.02498      0.5          
    868000  -765.0534       103.87169      221.71208      0.5          
    869000  -672.3957      -127.44367      225.92957      0.5          
    870000  -646.8148      -325.95918      224.59963      0.5          
    871000  -682.61929      30.706629      220.9813       0.5          
    872000  -691.78497      129.10336      222.44249      0.5          
    873000  -804.51178     -195.24974      220.91121      0.5          
    874000  -712.2799       153.3093       220.94956      0.5          
    875000  -804.55038     -212.48499      219.6236       0.5          
    876000  -737.42123      26.922908      219.117        0.5          
    877000  -664.66595      152.53272      221.28193      0.5          
    878000  -769.57624     -359.07444      217.34485      0.5          
    879000  -754.88054     -283.39833      220.74525      0.5          
    880000  -745.11472      234.11033      218.06325      0.5          
    881000  -769.14622     -111.14546      217.36645      0.5          
    882000  -685.13606      3.7794677      221.68185      0.5          
    883000  -626.86055      118.73399      220.85692      0.5          
    884000  -704.58192      48.679286      221.50432      0.5          
    885000  -694.53732      6.9294499      222.33772      0.5          
    886000  -674.61621      305.55587      220.72228      0.5          
    887000  -697.28994     -66.235049      221.15523      0.5          
    888000  -728.16154     -214.31724      222.60743      0.5          
    889000  -727.67193      118.16408      218.34528      0.5          
    890000  -745.97673      41.958959      220.74709      0.5          
    891000  -691.09584      97.896391      219.6335       0.5          
    892000  -828.07004     -100.50978      218.16169      0.5          
    893000  -790.58543     -194.29364      217.39904      0.5          
    894000  -809.58303     -69.749607      217.90872      0.5          
    895000  -868.69729      215.29688      217.21215      0.5          
    896000  -811.78926     -210.40748      218.1963       0.5          
    897000  -657.2722      -85.998345      224.07181      0.5          
    898000  -791.31499      193.09916      221.47203      0.5          
    899000  -698.95728      25.009168      222.04335      0.5          
    900000  -751.33387     -211.76321      220.00368      0.5          
    901000  -787.36959      170.22246      220.25685      0.5          
    902000  -728.22739      40.283532      219.8838       0.5          
    903000  -823.28468      28.408518      221.5915       0.5          
    904000  -791.15454     -150.36914      217.92244      0.5          
    905000  -712.7967       391.8665       224.63204      0.5          
    906000  -725.18908      209.80566      218.8088       0.5          
    907000  -721.12702     -454.47235      221.21096      0.5          
    908000  -750.11115      7.1170784      215.61752      0.5          
    909000  -728.67381      41.855674      218.23583      0.5          
    910000  -623.6655      -49.681185      223.32714      0.5          
    911000  -655.03817     -38.527176      222.95157      0.5          
    912000  -715.22046      40.075056      218.37465      0.5          
    913000  -608.01315      241.07774      222.43326      0.5          
    914000  -664.54492     -353.34889      222.27087      0.5          
    915000  -658.6393      -14.133542      223.42899      0.5          
    916000  -683.24072     -165.30687      221.53002      0.5          
    917000  -691.53473     -109.65878      221.29617      0.5          
    918000  -754.45476      4.7707185      218.5338       0.5          
    919000  -664.91713      49.571939      220.77702      0.5          
    920000  -740.3004       13.475408      220.61265      0.5          
    921000  -636.30914     -228.03185      219.06579      0.5          
    922000  -590.96572      103.45149      222.0349       0.5          
    923000  -724.20939      48.687914      217.43477      0.5          
    924000  -697.55111      4.3881017      221.5499       0.5          
    925000  -673.80245      53.859518      219.57621      0.5          
    926000  -625.35819     -97.038681      221.73589      0.5          
    927000  -740.99796     -84.67319       218.66634      0.5          
    928000  -589.67461     -83.742893      222.37135      0.5          
    929000  -687.91151     -132.20285      217.74085      0.5          
    930000  -806.61619      150.40689      217.24653      0.5          
    931000  -787.48501      239.23628      218.93763      0.5          
    932000  -721.31771      239.16074      220.78413      0.5          
    933000  -758.29144     -68.01243       219.72424      0.5          
    934000  -805.38419     -70.722234      218.01507      0.5          
    935000  -821.48082      109.93745      214.45073      0.5          
    936000  -785.81196      344.91217      220.47257      0.5          
    937000  -828.55284      130.88485      218.2903       0.5          
    938000  -751.58442     -61.713771      220.88727      0.5          
    939000  -806.32528     -193.92485      219.18138      0.5          
    940000  -752.00749     -58.237764      220.90936      0.5          
    941000  -826.11316      155.23775      216.87189      0.5          
    942000  -771.41985     -89.997529      220.60172      0.5          
    943000  -787.43803     -204.51341      221.51754      0.5          
    944000  -695.55364     -92.09911       221.00336      0.5          
    945000  -672.69463      137.58357      219.89534      0.5          
    946000  -651.31646     -62.842135      219.43207      0.5          
    947000  -726.10566      24.453839      220.23907      0.5          
    948000  -701.33579     -70.407918      220.77272      0.5          
    949000  -646.90117      95.933974      218.81401      0.5          
    950000  -749.18721      64.074194      218.33826      0.5          
    951000  -632.00196     -183.02266      221.91943      0.5          
    952000  -552.69118      30.629139      223.67936      0.5          
    953000  -621.15936      336.18795      221.45129      0.5          
    954000  -724.01051     -334.42965      217.09058      0.5          
    955000  -616.32678     -224.85329      223.18818      0.5          
    956000  -631.46992      338.05953      220.79944      0.5          
    957000  -602.0212       181.95581      220.24157      0.5          
    958000  -675.28789     -102.5945       218.92222      0.5          
    959000  -584.39351     -53.528195      219.02593      0.5          
    960000  -602.10272      41.240686      221.0644       0.5          
    961000  -604.70599     -74.522888      222.05174      0.5          
    962000  -670.57984     -162.11845      220.96686      0.5          
    963000  -636.38402     -109.82254      220.69639      0.5          
    964000  -582.35926      28.420541      219.12365      0.5          
    965000  -592.51753      82.207965      220.80206      0.5          
    966000  -620.31531      293.00209      219.46626      0.5          
    967000  -588.76998      47.907751      220.95842      0.5          
    968000  -608.43239     -284.07749      221.61337      0.5          
    969000  -635.43904      286.89296      221.20805      0.5          
    970000  -568.53496      98.770994      224.08392      0.5          
    971000  -791.2511       207.75837      219.09032      0.5          
    972000  -750.21154     -189.69461      220.44808      0.5          
    973000  -751.7852      -282.08324      222.05378      0.5          
    974000  -859.18711     -83.605991      217.32572      0.5          
    975000  -796.95865      281.76433      217.70305      0.5          
    976000  -659.98683      105.0687       223.54545      0.5          
    977000  -809.67489     -93.003767      221.59335      0.5          
    978000  -828.11198     -25.033308      219.73864      0.5          
    979000  -737.14154      35.051926      219.29849      0.5          
    980000  -791.13046      82.298667      219.37177      0.5          
    981000  -671.24344      46.027159      222.35126      0.5          
    982000  -722.1769      -24.970714      218.21856      0.5          
    983000  -771.49687      260.63892      221.61874      0.5          
    984000  -775.83995      181.55985      218.06924      0.5          
    985000  -713.95225      214.05139      221.4374       0.5          
    986000  -656.1081       157.43756      222.3133       0.5          
    987000  -566.63704      32.735578      221.20121      0.5          
    988000  -762.74839     -4.2834474      216.9183       0.5          
    989000  -767.42288     -42.189817      217.81403      0.5          
    990000  -658.37535      26.916084      219.30445      0.5          
    991000  -569.41989     -170.37711      221.87847      0.5          
    992000  -592.49356     -27.907914      219.52336      0.5          
    993000  -632.08949     -50.450841      218.50273      0.5          
    994000  -587.74948      6.2498383      221.17176      0.5          
    995000  -614.60351      143.34776      220.06569      0.5          
    996000  -644.37559      65.653216      221.31876      0.5          
    997000  -771.81838     -63.199419      218.66888      0.5          
    998000  -605.79162      42.031269      220.88085      0.5          
    999000  -629.36589     -72.801207      222.89985      0.5          
   1000000  -618.59686     -174.91479      219.27541      0.5          
   1001000  -685.5713      -11.897881      218.34896      0.5          
   1002000  -710.16441      47.071218      219.81383      0.5          
   1003000  -696.04459     -150.45681      217.76569      0.5          
   1004000  -685.20835     -318.90828      221.19131      0.5          
   1005000  -658.835       -38.337976      224.21988      0.5          
   1006000  -696.03052      138.53354      221.551        0.5          
   1007000  -684.34641      123.87967      222.14144      0.5          
   1008000  -705.06514     -125.00791      219.63314      0.5          
   1009000  -775.48743     -55.948712      218.45149      0.5          
   1010000  -665.30708      173.20338      222.62047      0.5          
   1011000  -936.55901     -73.255422      217.97177      0.5          
   1012000  -843.21486      52.743222      219.39667      0.5          
   1013000  -781.23961      186.25856      222.22312      0.5          
   1014000  -735.48812      124.87338      221.41726      0.5          
   1015000  -949.39059     -151.68778      216.01217      0.5          
   1016000  -662.14532      74.169052      224.19252      0.5          
   1017000  -756.78546     -20.472005      218.72381      0.5          
   1018000  -809.51977     -1.5788805      218.77048      0.5          
   1019000  -897.59052     -117.75939      217.15021      0.5          
   1020000  -725.72327     -68.415644      222.26152      0.5          
   1021000  -756.45191      192.79563      217.84172      0.5          
   1022000  -752.48683      162.67741      221.48135      0.5          
   1023000  -793.56468     -87.973614      215.59706      0.5          
   1024000  -765.14431     -32.822502      218.96729      0.5          
   1025000  -733.44604     -65.205297      219.65053      0.5          
   1026000  -811.15586     -126.84354      217.68932      0.5          
   1027000  -772.5575      -57.985927      220.91481      0.5          
   1028000  -789.21074     -186.29565      219.82211      0.5          
[...]
   3748000  -593.67029      96.433495      217.42075      0.5          
   3749000  -593.58162     -59.39405       218.92166      0.5          
   3750000  -593.76616     -103.45411      218.90805      0.5          
   3751000  -593.78097      198.51269      218.66273      0.5          
   3752000  -593.85543      104.26371      221.03643      0.5          
   3753000  -593.90626      71.01153       220.5915       0.5          
   3754000  -593.69325      74.177203      221.92861      0.5          
   3755000  -593.60061      101.01019      221.0056       0.5          
   3756000  -594.02828      168.09006      221.55488      0.5          
   3757000  -593.67275      49.760024      221.07391      0.5          
   3758000  -593.44114     -11.478302      216.6221       0.5          
   3759000  -593.94294     -95.971827      220.193        0.5          
   3760000  -593.97351      186.14467      218.47981      0.5          
   3761000  -593.84506      75.520425      217.53867      0.5          
   3762000  -593.60069     -38.052495      221.38497      0.5          
   3763000  -593.7591       185.74815      220.57202      0.5          
   3764000  -593.45325     -59.464356      218.14679      0.5          
   3765000  -593.7167      -157.34728      216.93237      0.5          
   3766000  -593.55163      67.409583      220.56113      0.5          
   3767000  -593.43055     -95.038906      218.68278      0.5          
   3768000  -593.48545     -177.78665      217.94669      0.5          
   3769000  -593.58279     -219.23742      218.12642      0.5          
   3770000  -593.50924     -169.55885      220.96182      0.5          
   3771000  -593.58641      251.02334      220.81139      0.5          
   3772000  -593.72775      323.37543      219.18267      0.5          
   3773000  -593.68088     -179.57674      219.93642      0.5          
   3774000  -593.37276     -292.68497      222.40709      0.5          
   3775000  -593.42855     -46.127103      219.48729      0.5          
   3776000  -593.62793      231.76115      220.79947      0.5          
   3777000  -593.45126      107.84337      220.92832      0.5          
   3778000  -593.54005     -11.033712      217.69244      0.5          
   3779000  -593.49366     -207.23562      216.68631      0.5          
   3780000  -593.55907     -8.4055307      220.69477      0.5          
   3781000  -593.69823     -118.30085      216.05637      0.5          
   3782000  -593.37983      120.03643      218.42424      0.5          
   3783000  -593.72756      113.99816      216.51786      0.5          
   3784000  -593.5982       81.470386      217.73779      0.5          
   3785000  -593.4667       65.549156      219.39603      0.5          
   3786000  -593.60858     -251.91022      218.2126       0.5          
   3787000  -593.82119     -95.224053      219.11408      0.5          
   3788000  -593.66254      94.320374      219.53132      0.5          
   3789000  -593.84275      11.154428      219.59375      0.5          
   3790000  -593.91229     -145.00475      217.23525      0.5          
   3791000  -593.75628     -54.109925      220.8582       0.5          
   3792000  -593.83434      20.933984      216.6847       0.5          
   3793000  -593.70398      286.22239      220.43856      0.5          
   3794000  -593.6768      -15.651785      220.3761       0.5          
   3795000  -593.82939     -66.670587      219.21378      0.5          
   3796000  -594.04133     -17.157763      218.77932      0.5          
   3797000  -593.85099     -108.80458      219.8041       0.5          
   3798000  -593.58176     -72.53215       217.95433      0.5          
   3799000  -593.69493      183.90924      219.50714      0.5          
   3800000  -593.93903     -11.981103      220.86267      0.5          
   3801000  -593.78174     -180.6044       220.9397       0.5          
   3802000  -593.63054     -59.083738      220.76899      0.5          
   3803000  -593.69995      217.63553      219.37886      0.5          
   3804000  -593.78573      309.50608      219.39954      0.5          
   3805000  -594.04251      2.2166699      221.66322      0.5          
   3806000  -593.71192      35.903519      217.54176      0.5          
   3807000  -593.60626      82.499405      217.58893      0.5          
   3808000  -593.42618     -366.07396      218.13767      0.5          
   3809000  -593.4796       145.87272      216.61695      0.5          
   3810000  -593.85121     -129.16925      217.19545      0.5          
   3811000  -594.06184      65.923664      218.25223      0.5          
   3812000  -594.03041     -34.336909      219.41205      0.5          
   3813000  -593.88255      76.717863      217.66403      0.5          
   3814000  -593.85629      201.35417      216.19547      0.5          
   3815000  -593.96466     -39.669669      218.2091       0.5          
   3816000  -594.1089      -260.20093      219.0064       0.5          
   3817000  -593.78359     -52.038221      215.60498      0.5          
   3818000  -593.69622      111.94992      216.44182      0.5          
   3819000  -593.87547     -120.21735      216.45922      0.5          
   3820000  -594.02819      194.50424      221.63606      0.5          
   3821000  -593.7922      -352.16766      217.01824      0.5          
   3822000  -593.58268     -264.12891      220.25951      0.5          
   3823000  -593.57838      71.831147      215.92974      0.5          
   3824000  -593.92826      112.5914       221.16099      0.5          
   3825000  -593.96831     -207.04758      223.28903      0.5          
   3826000  -593.80713     -59.589877      217.95631      0.5          
   3827000  -593.56531      76.205589      215.92331      0.5          
   3828000  -593.58367      166.31789      220.52898      0.5          
   3829000  -593.75788     -54.279367      220.68169      0.5          
   3830000  -593.44168      44.638623      219.06456      0.5          
   3831000  -593.14775      103.27524      220.3858       0.5          
   3832000  -593.11906     -87.048132      220.55671      0.5          
   3833000  -593.15551      111.28533      220.80743      0.5          
   3834000  -593.17903      248.8105       220.82854      0.5          
   3835000  -593.29064     -62.32754       220.39772      0.5          
   3836000  -592.97699     -203.92851      220.24941      0.5          
   3837000  -593.02039     -203.77675      218.52425      0.5          
   3838000  -593.1565       244.03647      220.8909       0.5          
   3839000  -593.23837     -40.874041      218.9015       0.5          
   3840000  -593.00264      56.081092      217.66948      0.5          
   3841000  -593.08333     -163.63667      218.58476      0.5          
   3842000  -593.15556      26.49607       224.61616      0.5          
   3843000  -592.5812       59.0872        219.6633       0.5          
   3844000  -592.73438      166.05396      221.11019      0.5          
   3845000  -592.60534     -44.109755      220.3221       0.5          
   3846000  -592.77377      10.727788      220.21669      0.5          
   3847000  -592.95317     -15.191751      220.8035       0.5          
   3848000  -592.96141     -120.53851      221.00181      0.5          
   3849000  -592.70027      284.15501      218.68622      0.5          
   3850000  -592.55905      3.1994388      218.27484      0.5          
   3851000  -592.75635     -147.62128      216.99759      0.5          
   3852000  -592.67126     -124.65903      217.89001      0.5          
   3853000  -592.92803     -16.196839      219.82773      0.5          
   3854000  -592.7323      -41.459534      217.88552      0.5          
   3855000  -592.5959      -35.005386      219.17067      0.5          
   3856000  -592.58021      147.41054      219.46722      0.5          
   3857000  -592.75863     -182.92084      216.81752      0.5          
   3858000  -592.80702      222.55232      217.52583      0.5          
   3859000  -592.53353     -260.76046      221.04299      0.5          
   3860000  -592.42823     -103.87231      217.34535      0.5          
   3861000  -592.57801      36.616137      219.63215      0.5          
   3862000  -592.80506     -187.30905      220.84668      0.5          
   3863000  -592.56888      73.057049      218.37024      0.5          
   3864000  -592.61917     -50.359652      217.36682      0.5          
   3865000  -592.37529     -15.150971      218.70454      0.5          
   3866000  -592.71691      21.042641      218.17761      0.5          
   3867000  -592.83605     -135.23165      220.12425      0.5          
   3868000  -592.64218     -35.654291      219.30059      0.5          
   3869000  -592.45738     -55.845865      219.49694      0.5          
   3870000  -592.71842     -172.71154      218.42714      0.5          
   3871000  -592.65724      71.553627      218.4712       0.5          
   3872000  -593.04261      78.924123      222.64233      0.5          
   3873000  -593.13239     -59.239944      221.38552      0.5          
   3874000  -592.80206     -57.778708      218.58091      0.5          
   3875000  -592.86821      108.37914      221.73872      0.5          
   3876000  -592.93596      64.959708      219.57289      0.5          
   3877000  -592.90101      81.339256      219.36934      0.5          
   3878000  -592.8105       74.811198      219.24875      0.5          
   3879000  -592.6528      -62.758245      219.61961      0.5          
   3880000  -592.48129      18.021326      221.0281       0.5          
   3881000  -592.46406      248.25428      218.87314      0.5          
   3882000  -592.54577      59.101454      223.16705      0.5          
   3883000  -592.34542     -284.51675      219.06978      0.5          
   3884000  -592.11714      113.25579      220.80647      0.5          
   3885000  -591.99158     -34.561165      219.4506       0.5          
   3886000  -592.19832     -13.728118      219.00243      0.5          
   3887000  -592.11903     -21.273783      219.14954      0.5          
   3888000  -591.94574     -40.238423      220.02416      0.5          
   3889000  -592.05617     -154.05508      220.6324       0.5          
   3890000  -592.30037     -179.67059      219.20352      0.5          
   3891000  -592.11318     -179.76229      219.51948      0.5          
   3892000  -592.07588     -12.779689      219.84058      0.5          
   3893000  -591.98541     -65.554791      219.68199      0.5          
   3894000  -591.72367      85.146119      219.45153      0.5          
   3895000  -591.63106     -100.54485      217.24416      0.5          
   3896000  -591.70864     -140.88455      218.5761       0.5          
   3897000  -591.897       -19.359992      220.13513      0.5          
   3898000  -591.76964      46.394998      219.06419      0.5          
   3899000  -591.6536       54.879662      217.96086      0.5          
   3900000  -591.64397      171.62325      216.73484      0.5          
   3901000  -591.64723     -153.89014      219.02729      0.5          
   3902000  -591.5746      -275.11969      219.6304       0.5          
   3903000  -591.47012      162.23852      215.07181      0.5          
   3904000  -591.45603      134.3466       219.96899      0.5          
   3905000  -591.38479     -249.88027      218.95511      0.5          
   3906000  -591.44843      84.621956      217.86692      0.5          
   3907000  -591.46627     -1.422357       220.44268      0.5          
   3908000  -591.24982     -152.75953      220.61633      0.5          
   3909000  -591.12481      55.095889      223.0275       0.5          
   3910000  -591.066        220.90907      220.00459      0.5          
   3911000  -591.04869     -49.605396      219.19985      0.5          
   3912000  -591.31111     -295.27368      223.01618      0.5          
   3913000  -590.96371      133.75017      218.70918      0.5          
   3914000  -591.04688      197.87371      219.78129      0.5          
   3915000  -591.03541      118.64347      220.73882      0.5          
   3916000  -591.002       -27.347892      221.97997      0.5          
   3917000  -591.06561      112.60655      222.07307      0.5          
   3918000  -591.22166      134.67048      222.57506      0.5          
   3919000  -591.09082     -83.890767      219.26463      0.5          
   3920000  -591.12011     -347.10983      219.52102      0.5          
   3921000  -590.9843       81.971038      217.84063      0.5          
   3922000  -591.15721      143.83715      219.06364      0.5          
   3923000  -590.9252       95.489993      218.56865      0.5          
   3924000  -590.85723     -80.343617      222.13268      0.5          
   3925000  -591.04164      107.01203      221.13584      0.5          
   3926000  -590.73741      349.75188      222.11147      0.5          
   3927000  -590.49613     -130.91382      222.6743       0.5          
   3928000  -590.55211     -239.42342      221.11451      0.5          
   3929000  -590.52534      44.532918      218.98216      0.5          
   3930000  -590.66729     -53.167668      217.73626      0.5          
   3931000  -590.58423     -21.630416      219.67168      0.5          
   3932000  -590.49851      72.032641      220.72561      0.5          
   3933000  -590.17993     -15.677561      219.06631      0.5          
   3934000  -590.33244     -52.995372      218.17202      0.5          
   3935000  -590.58514      130.11405      221.06917      0.5          
   3936000  -590.53207     -11.30693       217.54512      0.5          
   3937000  -590.50601     -28.026977      217.85568      0.5          
   3938000  -590.45048     -386.13259      220.23661      0.5          
   3939000  -590.38677     -74.133559      218.66021      0.5          
   3940000  -590.5306       72.453226      220.244        0.5          
   3941000  -590.24561     -72.61501       215.56049      0.5          
   3942000  -590.31459     -39.598396      217.61229      0.5          
   3943000  -590.23041      12.369559      215.37233      0.5          
   3944000  -590.3519      -202.57109      219.688        0.5          
   3945000  -590.40817     -207.44877      217.36611      0.5          
   3946000  -589.99188      71.175787      219.65581      0.5          
   3947000  -590.05442     -5.7886232      218.52674      0.5          
   3948000  -590.33685     -208.8797       216.43501      0.5          
   3949000  -590.22706      236.18606      218.63496      0.5          
   3950000  -590.17432     -33.16521       218.68079      0.5          
   3951000  -589.97173     -121.2374       220.54103      0.5          
   3952000  -589.8503       63.61866       220.66572      0.5          
   3953000  -590.06572     -227.80601      220.29238      0.5          
   3954000  -589.98862     -71.227194      219.69806      0.5          
   3955000  -590.05265      256.53641      219.16774      0.5          
   3956000  -589.72512      181.63512      218.9628       0.5          
   3957000  -589.89807     -108.15157      220.93696      0.5          
   3958000  -589.55498     -35.446925      219.82003      0.5          
   3959000  -589.67787      30.454733      219.02414      0.5          
   3960000  -589.70806     -3.4900388      220.05958      0.5          
   3961000  -589.40754     -249.26351      219.28818      0.5          
   3962000  -589.60631      2.2140838      222.33673      0.5          
   3963000  -589.93787      15.2003        219.79524      0.5          
   3964000  -589.64579      35.355495      220.88518      0.5          
   3965000  -589.44839      163.66937      218.5662       0.5          
   3966000  -589.34924     -34.78358       219.86443      0.5          
   3967000  -589.6894      -55.873421      222.10031      0.5          
   3968000  -589.43214      104.78925      220.90137      0.5          
   3969000  -589.37804      52.245835      218.40857      0.5          
   3970000  -589.46607      11.612933      217.23764      0.5          
   3971000  -589.68154      222.86208      220.34447      0.5          
   3972000  -589.61169      207.43868      219.97617      0.5          
   3973000  -589.51464     -31.573803      218.70148      0.5          
   3974000  -589.65002     -37.389444      219.85102      0.5          
   3975000  -589.7799      -81.804912      220.88782      0.5          
   3976000  -589.58803      31.180247      222.17339      0.5          
   3977000  -589.60502     -143.68799      218.7296       0.5          
   3978000  -589.87417     -225.30359      220.29649      0.5          
   3979000  -589.88583     -72.613999      218.64704      0.5          
   3980000  -589.95135      147.97433      217.40804      0.5          
   3981000  -589.9185      -114.8626       220.19148      0.5          
   3982000  -589.75539     -139.03571      217.65908      0.5          
   3983000  -589.82804     -115.22016      218.87072      0.5          
   3984000  -589.645       -37.727708      215.9676       0.5          
   3985000  -589.60645      220.49137      216.37109      0.5          
   3986000  -590.02246      9.4284939      219.4454       0.5          
   3987000  -589.832       -179.43916      217.26938      0.5          
   3988000  -589.71085      10.376316      219.89636      0.5          
   3989000  -589.69436     -52.551128      220.11922      0.5          
   3990000  -589.86729      113.75321      219.8412       0.5          
   3991000  -589.77251     -115.52777      219.59702      0.5          
   3992000  -589.43001     -84.850569      220.66518      0.5          
   3993000  -589.3982       23.952563      219.16068      0.5          
   3994000  -589.35715     -102.38494      219.19573      0.5          
   3995000  -589.49982      103.64572      218.13019      0.5          
   3996000  -589.687        38.385002      219.36287      0.5          
   3997000  -589.57921      54.760586      220.85585      0.5          
   3998000  -589.30877      138.93422      217.72546      0.5          
   3999000  -589.90352     -55.767658      220.33052      0.5          
   4000000  -589.61763      174.08035      219.5331       0.5          
Loop time of 26810.9 on 4 procs for 2000000 steps with 7050 atoms

Performance: 3.223 ns/day, 7.447 hours/ns, 74.597 timesteps/s, 525.906 katom-step/s
99.5% CPU use with 4 MPI tasks x 1 OpenMP threads

MPI task timing breakdown:
Section |  min time  |  avg time  |  max time  |%varavg| %total
---------------------------------------------------------------
Pair    | 20961      | 21687      | 22330      | 336.9 | 80.89
Bond    | 87.035     | 89.561     | 90.697     |  15.7 |  0.33
Kspace  | 3657.1     | 4288.9     | 5005       | 744.8 | 16.00
Neigh   | 174.43     | 174.49     | 174.53     |   0.3 |  0.65
Comm    | 370.21     | 385.45     | 400.44     |  65.8 |  1.44
Output  | 1.1196     | 1.4738     | 1.5985     |  16.9 |  0.01
Modify  | 164.49     | 170.05     | 176.39     |  32.8 |  0.63
Other   |            | 14.12      |            |       |  0.05

Nlocal:         1762.5 ave        1818 max        1701 min
Histogram: 1 0 0 0 0 2 0 0 0 1
Nghost:          11168 ave       11342 max       11056 min
Histogram: 2 0 0 0 0 1 0 0 0 1
Neighs:         760501 ave      792580 max      724542 min
Histogram: 1 0 0 0 0 2 0 0 0 1

Total # of neighbors = 3042004
Ave neighs/atom = 431.48993
Ave special neighs/atom = 2
Neighbor list builds = 8273
Dangerous builds = 0
System init for write_data ...
PPPM initialization ...
  using 12-bit tables for long-range coulomb (src/kspace.cpp:342)
  G vector (1/distance) = 0.20169663
  grid = 24 24 80
  stencil order = 5
  estimated absolute RMS force accuracy = 0.00286774
  estimated relative force accuracy = 8.6361139e-06
  using single precision FFTW3
  3d grid and FFT values/proc = 31046 11520
Generated 1 of 1 mixed pair_coeff terms from arithmetic mixing rule
Last active /omp style is kspace_style pppm/omp
