ITEM: TIMESTEP
0
ITEM: NUMBER OF NODES
32
ITEM: BOX BOUNDS
0 40
0 40
0 240
ITEM: NODES
1 1 0 0 0
2 1 18.75 0 0
3 1 18.75 20 0
4 1 0 20 0
5 1 0 0 240
6 1 18.75 0 240
7 1 18.75 20 240
8 1 0 20 240
9 1 0 20 0
10 1 18.75 20 0
11 1 18.75 40 0
12 1 0 40 0
13 1 0 20 240
14 1 18.75 20 240
15 1 18.75 40 240
16 1 0 40 240
17 1 18.75 0 0
18 1 40 0 0
19 1 40 20 0
20 1 18.75 20 0
21 1 18.75 0 240
22 1 40 0 240
23 1 40 20 240
24 1 18.75 20 240
25 1 18.75 20 0
26 1 40 20 0
27 1 40 40 0
28 1 18.75 40 0
29 1 18.75 20 240
30 1 40 20 240
31 1 40 40 240
32 1 18.75 40 240
ITEM: TIMESTEP
0
ITEM: NUMBER OF CUBES
4
ITEM: CUBES
1 1 1 2 3 4 5 6 7 8
2 1 9 10 11 12 13 14 15 16
3 1 17 18 19 20 21 22 23 24
4 1 25 26 27 28 29 30 31 32
