LAMMPS data file via write_data, version 29 Aug 2024, timestep = 200000, units = real

7050 atoms
2 atom types
4700 bonds
1 bond types
2350 angles
1 angle types

0 40 xlo xhi
0 40 ylo yhi
0 240 zlo zhi

Masses

1 12.0107
2 15.9994

Pair Coeffs # lj/cut/coul/long/omp

1 0.0536545 2.8
2 0.156989 3.05

Bond Coeffs # harmonic/omp

1 1028.27 1.16

Angle Coeffs # harmonic/omp

1 55.96 180

Atoms # full

7047 2349 2 -0.35 32.06193613588445 15.344789395204199 5.2220241054102186 -2 -6 1
7045 2349 1 0.7 31.13511281102236 15.498080164935766 4.582803884926034 -2 -6 1
7046 2349 2 -0.35 30.206590497676924 15.68243062441594 3.896057458616313 -2 -6 1
6963 2321 2 -0.35 1.8210670202898709 37.70718649797216 0.6791969257310947 7 4 0
6961 2321 1 0.7 2.8781354668647823 38.02904547317726 1.0533196811587966 7 4 0
6962 2321 2 -0.35 3.9637557379629946 38.34572339421384 1.4920191568212664 7 4 0
6983 2328 2 -0.35 31.65268703919355 10.361340861038556 11.990296767324711 10 -10 1
6984 2328 2 -0.35 32.427175674626596 10.045351066214073 9.799291088496547 10 -10 1
6982 2328 1 0.7 32.05944579439107 10.21975375726078 10.897009888253061 10 -10 1
626 209 2 -0.35 22.696324509810854 19.032519832301944 18.781937989315068 0 5 0
625 209 1 0.7 22.495254135959485 17.933621238820756 18.586639983607476 0 5 0
627 209 2 -0.35 22.239860800227213 16.80615601217786 18.520113676001056 0 5 0
4763 1588 2 -0.35 32.941732035168165 0.0544307057824156 18.601575668341507 -1 2 0
4762 1588 1 0.7 34.07989201296252 39.85975623477201 18.678490942821895 -1 1 0
4764 1588 2 -0.35 35.230734567088376 39.77974156217172 18.775338097908413 -1 1 0
7023 2341 2 -0.35 24.02905847855891 1.0285951955530823 28.106755664729953 8 -7 1
7021 2341 1 0.7 23.758573418495192 1.7136372223976526 29.007834455704423 8 -7 1
7022 2341 2 -0.35 23.44772374658089 2.369050140720571 29.917925546028705 8 -7 1
183 61 2 -0.35 34.70879883031876 3.5648060108812625 39.55275205347769 1 -1 0
182 61 2 -0.35 32.715212379755556 4.474788695228775 38.76694831353616 1 -1 0
181 61 1 0.7 33.69206113610312 4.053010646505458 39.20945266477218 1 -1 0
5381 1794 2 -0.35 1.3848208737265868 1.6516302771044322 43.46093074727873 -1 2 1
5382 1794 2 -0.35 1.5725260873241877 39.325654549217894 43.13902656466533 -1 1 1
5380 1794 1 0.7 1.4200539280712996 0.4850094326882083 43.37110719823769 -1 2 1
6923 2308 2 -0.35 13.375291354963533 9.433444867325317 57.98532558288581 -2 -2 0
6922 2308 1 0.7 12.898724475080844 10.317157872279283 57.34832544560247 -2 -2 0
6924 2308 2 -0.35 12.35236701327107 11.115821547121286 56.69053382791541 -2 -2 0
3389 1130 2 -0.35 0.7596245549460879 24.1359841689898 53.4521848965381 1 3 0
3388 1130 1 0.7 0.6161750180932536 24.538441084275988 52.39579771610022 1 3 0
3390 1130 2 -0.35 0.552725724220607 25.016173087321466 51.32725974818812 1 3 0
7040 2347 2 -0.35 39.79814731693536 36.06146099441136 59.67953245036904 -1 8 1
1083 361 2 -0.35 7.288549924890199 7.351434007918853 61.97696376715835 4 1 0
1081 361 1 0.7 7.345523754592875 8.180686907406763 62.76996314305842 4 1 0
1082 361 2 -0.35 7.392880808240062 9.056114947313926 63.521976901285456 4 1 0
7049 2350 2 -0.35 7.835543050281917 11.90734125177691 64.38823108045973 0 0 1
7048 2350 1 0.7 6.72053693109179 11.776407691725382 64.59866175302078 0 0 1
7050 2350 2 -0.35 5.592360785591174 11.708761941208142 64.72705537491147 0 0 1
4292 1431 2 -0.35 7.0882617884708825 37.7063327145978 65.54922724718881 1 1 0
4293 1431 2 -0.35 8.07348566117453 39.78512271208825 66.09830937296312 1 1 0
4291 1431 1 0.7 7.582606720531069 38.77666456737324 65.80059383061413 1 1 0
7039 2347 1 0.7 39.79000183641408 36.86173479442263 60.52689450683941 -1 8 1
7041 2347 2 -0.35 39.74332276269151 37.68566542641071 61.33151790880268 -1 8 1
7001 2334 2 -0.35 4.728074248939675 7.744636501921547 76.56614443075163 0 0 1
7000 2334 1 0.7 5.191537821234938 6.659876219124101 76.58008949707491 0 0 1
2151 717 2 -0.35 3.0775002094428627 6.247829233456619 74.14370109841119 0 0 0
2149 717 1 0.7 2.066875651100688 5.708903837276295 74.03883047422056 0 0 0
2150 717 2 -0.35 1.0822565139879692 5.136568048057631 73.90664752481291 0 0 0
7002 2334 2 -0.35 5.597843457504334 5.580416188964757 76.5729507790363 0 0 1
1128 376 2 -0.35 1.5698249695840583 6.622001240546924 70.6394542280117 0 0 0
1126 376 1 0.7 1.1703372283080378 7.7124083180686265 70.6602631226999 0 0 0
2714 905 2 -0.35 7.637392393756456 8.917722811746229 76.6411060104707 0 1 0
2925 975 2 -0.35 7.2265017327137056 3.000488606070082 76.54408132290699 0 0 0
2923 975 1 0.7 7.51474274296636 2.0698441597931376 77.09529284770744 0 0 0
1540 514 1 0.7 12.42578975350272 6.3982448166636265 76.44433344858992 0 0 0
1541 514 2 -0.35 12.592968420077423 5.93942846762208 75.38233175544656 0 0 0
2634 878 2 -0.35 15.636428358334948 2.848466321006346 76.0046306070309 0 0 0
2633 878 2 -0.35 17.491005090053427 4.050087650954376 75.4605749858342 0 0 0
2632 878 1 0.7 16.5742692896777 3.425252738268326 75.74286019470875 0 0 0
5583 1861 2 -0.35 17.752047708525332 39.95154376786956 73.05674124920135 0 -1 0
5581 1861 1 0.7 17.847930174507077 39.35584260723009 74.05984801162971 0 -1 0
4278 1426 2 -0.35 16.55355917169218 9.40725183918199 75.6335763956827 0 0 0
5575 1859 1 0.7 19.93425511508925 6.024684202551845 77.11511605263982 0 0 0
4276 1426 1 0.7 15.848792774194894 8.528410201100826 75.35494368706324 0 0 0
1782 594 2 -0.35 21.875526375569905 4.114498777318425 73.7001570694759 1 0 0
6396 2132 2 -0.35 20.236784496818675 9.639012113650704 76.22840822737119 0 0 0
5576 1859 2 -0.35 20.04255401731283 5.123577279987771 76.3916238345086 0 0 0
1781 594 2 -0.35 20.25770098309245 2.5003428875864864 73.76129971718129 1 0 0
1780 594 1 0.7 21.05383507136391 3.314194485960944 73.72842656023376 1 0 0
1629 543 2 -0.35 23.309033996347637 0.8007896441837885 73.99848511949352 0 0 0
5336 1779 2 -0.35 28.101196679604246 0.48054055964486225 72.13891815475536 0 0 0
5343 1781 2 -0.35 27.813801652346793 3.7443052352162525 72.99482878673254 0 0 0
748 250 1 0.7 25.929089544476827 7.898801682275829 76.11803400153518 0 0 0
750 250 2 -0.35 26.917127898373643 7.486879332620787 76.57770937250308 0 0 0
5341 1781 1 0.7 28.329579718789716 4.248778878752118 72.06932871086909 0 0 0
1627 543 1 0.7 24.41667140123743 0.518652913221692 74.14150373516263 0 0 0
5342 1781 2 -0.35 28.943881229314734 4.753609192272989 71.21094955674653 0 0 0
749 250 2 -0.35 25.00935712000494 8.364557196587768 75.59540382518107 0 0 0
1628 543 2 -0.35 25.53708804789676 0.1615371356029614 74.23183948511048 0 0 0
5335 1779 1 0.7 28.36632123225819 39.84816917762151 73.07809196142459 0 -1 0
2078 693 2 -0.35 29.281546848981677 6.502904713474908 74.39979967398546 0 0 0
2079 693 2 -0.35 29.15429308872875 5.1718014384916025 76.3083704697005 0 0 0
2077 693 1 0.7 29.180334637252088 5.880047033945942 75.3767826053925 0 0 0
922 308 1 0.7 28.775319394697725 1.4046721555225576 76.38443792435999 0 0 0
924 308 2 -0.35 28.689892404092255 2.1953663866477195 75.51802701199225 0 0 0
6363 2121 2 -0.35 38.37346466480467 3.8075751477836697 74.49772932392919 0 1 0
6900 2300 2 -0.35 31.487619683151475 4.890489660977078 72.51637517651079 0 -1 0
1127 376 2 -0.35 0.7423389359314146 8.783118963262703 70.66751096533032 0 0 0
6898 2300 1 0.7 32.11927317157509 5.547106783267792 71.78109490489513 0 -1 0
6362 2121 2 -0.35 37.87407970675914 3.2230509491997394 72.35060664784936 0 1 0
6361 2121 1 0.7 38.03424734443372 3.5059263473300577 73.45193758026149 0 1 0
6397 2133 1 0.7 35.33110627019745 6.153332446906566 73.47139662248773 -1 1 0
6398 2133 2 -0.35 34.6209555378764 5.4951297411619855 74.09916533812503 -1 1 0
6399 2133 2 -0.35 36.03937416454354 6.820970945558596 72.82863855553326 -1 1 0
6528 2176 2 -0.35 31.76228827472081 8.673891929075559 73.94353864697364 0 1 0
6526 2176 1 0.7 32.42829707709948 9.526831131950232 74.31175855660258 0 1 0
6697 2233 1 0.7 32.58466861078989 2.8036568750925346 74.2652853258478 0 -1 0
6527 2176 2 -0.35 33.155658955071445 10.426836706568013 74.51992572442295 0 1 0
6699 2233 2 -0.35 32.09324809441977 3.3576673727083346 75.17785521643482 0 -1 0
6461 2154 2 -0.35 36.89691127990281 8.989720973796917 74.731583845002 0 0 0
6899 2300 2 -0.35 32.78480141814159 6.1657667940270455 71.07260121986846 0 -1 0
6698 2233 2 -0.35 33.100309060101125 2.1884568163196905 73.40883160541009 0 -1 0
6462 2154 2 -0.35 38.09305173485218 7.005469053771197 75.03397264306383 0 0 0
6460 2154 1 0.7 37.51335389658911 7.987381628419544 74.79792051676883 0 0 0
5789 1930 2 -0.35 38.994399742135386 0.7266005299400329 74.90838547965352 0 0 0
1557 519 2 -0.35 32.01466703376496 6.131108872101173 76.74188726165093 0 1 0
288 96 2 -0.35 7.371200955136392 11.73563058707378 71.96882522710655 1 0 0
286 96 1 0.7 7.365561509489153 12.572876512017356 72.75196977352287 1 0 0
287 96 2 -0.35 7.3523265478929005 13.416492688673179 73.5179232096733 1 0 0
2454 818 2 -0.35 8.882799678919643 18.06486821910035 73.2859043553192 1 1 0
6702 2234 2 -0.35 3.1746748423986357 10.257750348250172 75.21750521377484 1 0 0
214 72 1 0.7 6.126119553074187 16.590064456696304 76.34206594559409 0 0 0
6700 2234 1 0.7 4.103878261157824 10.940340518341394 75.46144095542176 1 0 0
216 72 2 -0.35 6.968243048780479 17.39233086200697 76.26940942761841 0 0 0
2452 818 1 0.7 8.480442432234018 18.889182592048883 73.99582064568051 1 1 0
6701 2234 2 -0.35 4.996536168198771 11.674595706147189 75.59508530032042 1 0 0
215 72 2 -0.35 5.2990365307364655 15.755026944590664 76.3749301744312 0 0 0
2444 815 2 -0.35 9.212741106301419 12.750469987934254 75.9687671555305 0 -1 0
2445 815 2 -0.35 8.81711709867744 14.999049352737844 75.81848226946131 0 -1 0
2443 815 1 0.7 9.013152654386282 13.869781749580014 75.88019514897277 0 -1 0
6133 2045 1 0.7 2.348840153166625 14.821939177360282 74.9929157284663 0 0 0
6135 2045 2 -0.35 2.7945103618005884 15.872822414736465 74.83661543186263 0 0 0
6134 2045 2 -0.35 1.9830884634179036 13.75263404285802 75.17145354988514 0 0 0
2453 818 2 -0.35 8.178053583693648 19.764849308241185 74.68224351682707 1 1 0
2713 905 1 0.7 7.399805123030924 9.669308085552839 77.49386364961883 0 1 0
4277 1426 2 -0.35 15.171548692215907 7.616948165068686 75.07489607402437 0 0 0
4814 1605 2 -0.35 13.828799248842234 12.331703983364498 74.23970810965824 0 0 0
4813 1605 1 0.7 14.48701489181335 12.088976092755308 75.13637602975781 0 0 0
74 25 2 -0.35 15.312772423751397 11.496901714912092 71.86444286946178 0 0 0
75 25 2 -0.35 14.848200066917867 13.772126871380944 71.71551250970077 0 0 0
73 25 1 0.7 15.088643125191163 12.652303796851523 71.79915339333648 0 0 0
6735 2245 2 -0.35 18.01048768157329 15.549668212469994 75.04265478260488 1 2 0
6734 2245 2 -0.35 15.904762049782882 14.667071455815645 74.57056725617132 1 2 0
6733 2245 1 0.7 16.958960381102354 15.11156224187074 74.82331472121157 1 2 0
2602 868 1 0.7 12.973732728179037 19.18293365177431 71.64278633739681 0 0 0
2603 868 2 -0.35 13.884709283199854 19.759542449650613 71.2650076313401 0 0 0
2019 673 2 -0.35 13.075727772893018 16.925339142629618 74.49500382191954 1 0 0
2604 868 2 -0.35 12.082138915797563 18.522048744953686 72.0233873408194 0 0 0
2017 673 1 0.7 12.26852204607514 16.147665569615036 74.1384223253765 1 0 0
2018 673 2 -0.35 11.445871412957633 15.350487182988122 73.85325338003878 1 0 0
4815 1605 2 -0.35 15.190659181398658 11.97341717702539 76.02343220219973 0 0 0
6395 2132 2 -0.35 19.407209428663005 8.745789162657616 74.26221365570065 0 0 0
6394 2132 1 0.7 19.821105929737307 9.238092632705689 75.23552270593981 0 0 0
33 11 2 -0.35 18.225708757419092 11.882280858747503 76.71998000913776 0 0 0
61 21 1 0.7 18.437879086664896 17.662855918139464 78.1043053691151 0 0 0
62 21 2 -0.35 19.62735994788167 17.618689868824543 78.1109891134286 0 0 0
1353 451 2 -0.35 12.713121185312612 14.495520656870282 76.59511645888468 -1 0 0
6956 2319 2 -0.35 27.70679894017345 10.042927465915207 75.94186915224024 -1 -8 0
6955 2319 1 0.7 27.86442878833665 10.763508227301648 75.04203446485621 -1 -8 0
6957 2319 2 -0.35 28.172633713533063 11.332513479908112 74.07548701358198 -1 -8 0
5813 1938 2 -0.35 27.062968157105015 10.398757999611481 70.95825010237431 0 0 0
2380 794 1 0.7 25.67507499593047 12.727553586443776 72.75233294547522 0 0 0
2382 794 2 -0.35 24.725240772896925 12.127609265614103 73.0259951409524 0 0 0
2381 794 2 -0.35 26.571475535594896 13.389385527866018 72.47150899614137 0 0 0
4108 1370 1 0.7 25.39507428265559 14.868285408364951 76.26121538800083 0 0 0
4110 1370 2 -0.35 25.849515953479315 14.419277986167556 75.29551907792492 0 0 0
5112 1704 2 -0.35 26.749707360726276 18.17404785965418 75.77039041060135 0 0 0
5110 1704 1 0.7 25.988980371375334 18.623732205594457 76.55190513328047 0 0 0
4109 1370 2 -0.35 24.922200052543143 15.350744929247536 77.20824556848953 0 0 0
5814 1938 2 -0.35 27.82182666750581 11.925587670090703 69.36417888249996 0 0 0
5812 1938 1 0.7 27.450854345440042 11.090779921289595 70.10464195346974 0 0 0
6014 2005 2 -0.35 30.450635906107824 14.677075277491163 74.08809559274617 0 -1 0
6013 2005 1 0.7 30.055527672006935 13.967590316414046 74.88688817771559 0 -1 0
6912 2304 2 -0.35 31.08673289573174 19.06642001358912 75.1788752863011 -6 0 0
6015 2005 2 -0.35 29.8084465206758 13.35274507611296 75.79559637269878 0 -1 0
3036 1012 2 -0.35 39.047587842378604 14.735270388390154 73.64807342554042 0 1 0
1277 426 2 -0.35 34.68379298918408 11.782529332384549 72.21885775008472 0 0 0
3034 1012 1 0.7 39.28749392704105 13.65404176190851 73.30682997732251 0 1 0
1276 426 1 0.7 35.56987860957714 11.877931756165648 72.95737908604227 0 0 0
3035 1012 2 -0.35 39.591854989573775 12.584183910497375 73.08476255498685 0 1 0
1278 426 2 -0.35 36.390104050511674 11.899534632832323 73.75099935313935 0 0 0
6911 2304 2 -0.35 31.260842469399517 16.987186568507575 76.23956295693345 -6 0 0
534 178 2 -0.35 0.6918328921700461 9.052022273871147 73.8937450969461 1 0 0
6910 2304 1 0.7 31.18171667592847 18.04305381002873 75.72500738082782 -6 0 0
4494 1498 2 -0.35 35.38212740668002 14.867048956947965 74.41331610290679 0 0 0
533 178 2 -0.35 39.88811121156064 10.619011952207627 75.4375858526278 0 0 0
532 178 1 0.7 0.30983501378342315 9.835050538250169 74.67820353538967 1 0 0
4492 1498 1 0.7 35.75303070310491 15.538766849080027 75.28615735093194 0 0 0
6746 2249 2 -0.35 34.215499239310354 18.73395045832302 76.44030333521698 -1 0 0
4493 1498 2 -0.35 36.14283491173808 16.29214121199889 76.1179733356671 0 0 0
6745 2249 1 0.7 34.86367013041323 19.67285679365815 76.55580732311336 -1 0 0
2757 919 2 -0.35 0.9393047568204843 25.526758958655957 74.5839048635669 0 0 0
2755 919 1 0.7 0.8811236545596334 24.64552721563775 75.33914194084544 0 0 0
2756 919 2 -0.35 0.9095358632463322 23.85391784307645 76.129831515186 0 0 0
566 189 2 -0.35 8.863625443900125 20.559546220204204 71.0800673352933 0 -1 0
565 189 1 0.7 9.762259179238091 21.218582417052083 71.36658090660684 0 -1 0
2571 857 2 -0.35 7.52688953636503 27.418309544010725 77.77544908991844 0 -1 0
2034 678 2 -0.35 14.58268731574993 20.021343630481514 75.1115123889232 0 0 0
2033 678 2 -0.35 16.441874025216055 18.871037863370532 74.37049048163206 0 0 0
567 189 2 -0.35 10.724490780552811 21.85164566129908 71.5819823841286 0 -1 0
2032 678 1 0.7 15.51129302924978 19.440202994098698 74.73020651585269 0 0 0
6195 2065 2 -0.35 12.718944922520059 30.144927478596586 76.94742476775946 0 0 0
5019 1673 2 -0.35 26.035212685703826 22.310955427984673 76.69804757484413 -1 -1 0
5017 1673 1 0.7 25.695066718784048 23.427826704296237 76.80393399780611 -1 -1 0
5018 1673 2 -0.35 25.33831474059282 24.556407875122325 76.88024357058123 -1 -1 0
6351 2117 2 -0.35 21.853625212632455 23.530349649493687 77.97752796040005 0 0 0
6349 2117 1 0.7 21.340425931716208 22.953511313353236 77.13216598129956 0 0 0
6350 2117 2 -0.35 20.84179249970708 22.344959423538107 76.28967137734683 0 0 0
1311 437 2 -0.35 24.01519459498408 26.95910236580793 75.6249466953933 -1 0 0
1309 437 1 0.7 23.277604936537312 26.819401654132 76.55647044673638 -1 0 0
7016 2339 2 -0.35 28.659958447382042 20.66663964824986 75.61862883113626 -2 0 1
1310 437 2 -0.35 22.698361369257437 26.670243424164934 77.56353191570443 -1 0 0
7015 2339 1 0.7 29.069200826484046 21.46321048772665 74.87630518208684 -2 0 1
2865 955 2 -0.35 29.80035250515109 25.98361641605748 76.60882255766641 0 -1 0
6747 2249 2 -0.35 35.433686313366735 20.688660123964677 76.46057614000063 -1 0 0
6402 2134 2 -0.35 38.15020069274077 27.01867283199165 74.62270171562159 -1 0 0
6401 2134 2 -0.35 38.8218663572574 26.099877410851242 76.64894077615169 -1 0 0
6400 2134 1 0.7 38.46811712098112 26.572359538465605 75.63101545061792 -1 0 0
594 198 2 -0.35 36.66594236934329 22.99871242706429 77.83400788146167 0 0 0
592 198 1 0.7 37.14566262991959 23.251412644603523 76.8360926969753 0 0 0
7017 2339 2 -0.35 29.482107895311394 22.29177923969431 74.23042835316545 -2 0 1
3702 1234 2 -0.35 35.5824810995584 29.1010073569728 75.70202091257026 0 0 0
3315 1105 2 -0.35 33.02714876079254 22.752697672818694 75.68922002620447 -1 0 0
593 198 2 -0.35 37.661621459172295 23.314381605561362 75.82755120545444 0 0 0
6939 2313 2 -0.35 10.034092296726433 32.854405284115664 76.4059472364414 -1 2 0
1985 662 2 -0.35 6.016781729052466 37.9235295435611 74.96594701539354 0 -1 0
1984 662 1 0.7 6.259928300256795 36.85979612581656 74.58621438540085 0 -1 0
6853 2285 1 0.7 1.389668860283214 37.51327382564501 74.53281265037833 0 0 0
1986 662 2 -0.35 6.430047466569388 35.81715967705253 74.13754679980092 0 -1 0
6854 2285 2 -0.35 2.3710053891996354 36.89209411756241 74.56706188872633 0 0 0
4103 1368 2 -0.35 2.498617948492862 33.34731023147759 76.56502342082776 0 0 0
4102 1368 1 0.7 3.623209425981224 33.47161522755913 76.40784302663616 0 0 0
4104 1368 2 -0.35 4.762957355370756 33.35578619570891 76.19196204663366 0 0 0
6193 2065 1 0.7 13.86257679081686 30.40510237827001 77.00350456936353 0 0 0
6194 2065 2 -0.35 15.000390073782246 30.514752324898552 77.05611988235762 0 0 0
5218 1740 1 0.7 11.082197906813393 39.28420386578838 75.49782646827202 0 -1 0
5220 1740 2 -0.35 10.624006771278264 38.380392726713566 74.89624996251533 0 -1 0
5219 1740 2 -0.35 11.566308295703966 0.12328979282854013 76.15501295173654 0 0 0
5874 1958 2 -0.35 15.23756890535116 39.68438280934733 75.5039560295559 -1 0 0
5872 1958 1 0.7 15.615169882174802 39.269585527666834 76.50234176150235 -1 0 0
6244 2082 1 0.7 19.326782350958634 36.03541967533977 76.82244510126326 0 -1 0
6246 2082 2 -0.35 18.628608994541537 36.41551155474153 77.63887939818841 0 -1 0
5582 1861 2 -0.35 18.02504177245169 38.69040889071906 74.9969630553094 0 -1 0
3600 1200 2 -0.35 14.233522645436889 36.78550528777373 75.14466382472757 0 -1 0
3598 1200 1 0.7 14.811447443606218 37.159222751993035 74.2150826285432 0 -1 0
3599 1200 2 -0.35 15.39961721726282 37.557340767494495 73.29743759605059 0 -1 0
2103 701 2 -0.35 20.395414057770658 32.66813856396818 69.71321931565161 0 -1 0
2101 701 1 0.7 19.658842739213107 32.78023524512092 70.55503066123616 0 -1 0
6937 2313 1 0.7 10.492417904563204 32.172191804260954 75.58265613689619 -1 2 0
2102 701 2 -0.35 18.943138984373963 32.74810489654684 71.45232558825703 0 -1 0
6938 2313 2 -0.35 10.955694020912388 31.50526539905682 74.71942215843879 -1 2 0
6940 2314 1 0.7 12.854967441968338 34.39956316143429 77.18141110944565 -3 -1 0
4782 1594 2 -0.35 20.338905552820915 31.192261063459018 74.35175929136048 0 -1 0
4780 1594 1 0.7 20.92170426342031 32.053791755317675 73.85377247198754 0 -1 0
4781 1594 2 -0.35 21.495888217490908 32.94607356649547 73.36958058803248 0 -1 0
6941 2314 2 -0.35 13.453112903749417 33.57275674244371 76.58749352807453 -3 -1 0
5337 1779 2 -0.35 28.666930696192278 39.12534847607512 73.91774580778834 0 -1 0
3502 1168 1 0.7 23.113563454402325 30.771591328923318 76.5264242768212 0 0 0
3504 1168 2 -0.35 23.503079200003796 29.707799223327953 76.69978601399173 0 0 0
4031 1344 2 -0.35 26.5602122765996 36.36302978906601 73.38333495694131 0 -1 0
6245 2082 2 -0.35 19.981962963298656 35.50957442858214 76.02145081605738 0 -1 0
3897 1299 2 -0.35 25.08855650670176 35.47178491686387 75.77754003430672 -1 0 0
4030 1344 1 0.7 27.628370355478353 36.04813345992938 73.66648931266576 0 -1 0
4032 1344 2 -0.35 28.70061149366304 35.69195438805386 74.02513100056174 0 -1 0
3632 1211 2 -0.35 27.727853663921337 32.6478976552953 75.6888356261777 0 -1 0
3631 1211 1 0.7 28.721834833118372 32.66045071350998 76.2855778732241 0 -1 0
3633 1211 2 -0.35 29.64490077098841 32.59918224620341 76.95791634584708 0 -1 0
3318 1106 2 -0.35 29.02783590005669 37.31247901487132 77.10028547249262 0 0 0
3895 1299 1 0.7 24.2473825554466 35.53882672076792 76.5599431651923 -1 0 0
1974 658 2 -0.35 23.277494919396574 39.37345665103729 77.14929943325758 0 -1 0
1972 658 1 0.7 22.279294370752574 38.785995652495075 77.31557984783971 0 -1 0
3072 1024 2 -0.35 32.950226369715345 39.21680918394262 71.58109873577817 -1 -1 0
3071 1024 2 -0.35 35.06856264861055 39.36562655322858 72.54844504698156 -1 -1 0
3070 1024 1 0.7 34.01472740390995 39.28880930679354 72.07929415520265 -1 -1 0
3701 1234 2 -0.35 34.93042813746128 31.32727860789243 75.55036976433816 0 0 0
3700 1234 1 0.7 35.197529395228244 30.19627675264703 75.63247582842259 0 0 0
6855 2285 2 -0.35 0.42906733443618417 38.15836555031894 74.43446004221047 0 0 0
6993 2331 2 -0.35 38.64770529174581 33.69999649568841 74.87648587346459 3 -1 1
6991 2331 1 0.7 37.97039876129246 32.991336180441444 74.26855107141152 3 -1 1
6992 2331 2 -0.35 37.23957605602819 32.243518690938934 73.74205870004225 3 -1 1
5788 1930 1 0.7 38.33439684281674 39.823256178356445 75.21411748662567 0 -1 0
3534 1178 2 -0.35 34.851506759134224 37.480133674342284 74.96209722323891 0 0 0
3532 1178 1 0.7 35.657026173475 36.77261776531286 74.47285882356324 0 0 0
3533 1178 2 -0.35 36.448036493159734 35.964535877059845 74.13043885116338 0 0 0
5790 1930 2 -0.35 37.62315002706343 38.98083019491649 75.48346925884897 0 -1 0
5870 1957 2 -0.35 31.16644199000994 39.53534998804001 75.58920637369654 -1 -1 0
5869 1957 1 0.7 31.541500369602918 38.54236863928439 76.0624428080625 -1 -1 0
4620 1540 2 -0.35 32.48404815959179 31.21659005716957 77.809439285467 0 0 0
6926 2309 2 -0.35 34.499136154473 39.707825497833426 77.11187326373549 -1 -1 0
5871 1957 2 -0.35 31.891911254816492 37.532234225881716 76.50276504763333 -1 -1 0
2730 910 2 -0.35 34.435861177172015 34.92299684243701 76.42278916339036 0 0 0
2924 975 2 -0.35 7.782126675897314 1.2027279158739663 77.83273382848812 0 0 0
1433 478 2 -0.35 5.4657450753417365 6.681802387880076 82.68794786531517 0 0 0
1432 478 1 0.7 4.9942776955418955 7.597812710294054 82.1441410681472 0 0 0
1507 503 1 0.7 7.592484278388094 6.466407017697927 79.65352127019871 0 0 0
1509 503 2 -0.35 8.218134894729092 5.503450022625559 79.42098822416187 0 0 0
1383 461 2 -0.35 3.9982968157879206 5.0662124809510525 79.7378981590729 0 0 0
5430 1810 2 -0.35 39.48320217262448 6.811526960187684 80.2807807768464 -1 0 0
5428 1810 1 0.7 0.36294726692092705 6.2503114918725675 80.83265454509825 0 0 0
1381 461 1 0.7 3.05757375947999 4.406066119459591 79.61615251054896 0 0 0
1382 461 2 -0.35 2.2131417052595994 3.609522683718136 79.4791120986784 0 0 0
5775 1925 2 -0.35 3.410710584888557 8.739326829073454 84.75984214142147 0 0 0
1508 503 2 -0.35 6.858685281859885 7.401520560946436 79.8352275329251 0 0 0
5773 1925 1 0.7 3.6826977025126455 7.741844859323703 85.26502755511174 0 0 0
5774 1925 2 -0.35 3.886166249634966 6.81940844209298 85.91035687242233 0 0 0
5564 1855 2 -0.35 8.497290054256972 7.368896101668129 82.42111850461824 1 0 0
5563 1855 1 0.7 8.323605001974293 7.139154222994311 83.54199493626606 1 0 0
2277 759 2 -0.35 3.6711840393424127 4.136725593829345 84.29848980253277 0 0 0
2275 759 1 0.7 4.81592268281307 4.190051573238204 84.2751070083803 0 0 0
2276 759 2 -0.35 5.955836627432941 4.095345421099229 84.19462270106051 0 0 0
5141 1714 2 -0.35 2.6056206677615004 1.9579479287993218 82.06835562371829 0 0 0
5565 1855 2 -0.35 8.146129346508372 6.900137988105572 84.64782867046297 1 0 0
1434 478 2 -0.35 4.560274040645464 8.483126173396213 81.61901027828465 0 0 0
6515 2172 2 -0.35 7.650069002747889 2.365282151579792 82.62867444445628 0 0 0
6516 2172 2 -0.35 8.546525497550142 4.498915779559162 82.2703920167912 0 0 0
6514 2172 1 0.7 8.108224563557975 3.4320373874976906 82.47839098343 0 0 0
5140 1714 1 0.7 2.17412893899569 0.9255423548817265 81.90639985536002 0 0 0
1724 575 2 -0.35 9.055708122395153 3.9718032708235333 85.3177583545378 0 1 0
5429 1810 2 -0.35 1.2596791117216986 5.814478000086835 81.40960473547992 0 0 0
6986 2329 2 -0.35 5.3515075650638435 1.2644044530499496 79.9659196736811 -2 0 1
6985 2329 1 0.7 6.130690742025258 0.5645741341853608 80.47633471661402 -2 0 1
761 254 2 -0.35 9.571258746538629 0.3019213885920892 84.00289058767802 0 1 0
5743 1915 1 0.7 2.9802303725601793 9.417127588875358 79.35393181261315 0 0 0
5744 1915 2 -0.35 2.0043695716345438 8.769007008185689 79.60121472200582 0 0 0
5142 1714 2 -0.35 1.8252316052969861 39.86576510311609 81.64405968705876 0 -1 0
1542 514 2 -0.35 12.339781689817022 6.636329175025142 77.58055387329274 0 0 0
6978 2326 2 -0.35 15.696886980431914 6.757687111080719 77.89361655901915 -2 -3 1
5577 1859 2 -0.35 19.78721980508684 6.946853233361328 77.77949225900278 0 0 0
3552 1184 2 -0.35 19.94549867003385 3.5330639757613764 79.07696369952919 0 0 0
6977 2326 2 -0.35 16.876698358983965 4.876579919664578 78.59594020119832 -2 -3 1
3305 1102 2 -0.35 13.72684203582688 3.841199411848184 78.30099156747316 0 0 0
6889 2297 1 0.7 11.151328354076375 7.739419000433559 80.96094797208828 0 0 0
6891 2297 2 -0.35 10.437165975341498 8.138228179535636 80.15492993912214 0 0 0
3304 1102 1 0.7 13.699480320388487 2.7673224298920243 78.74565490092759 0 0 0
6976 2326 1 0.7 16.275411959675708 5.81315870943304 78.26434040365743 -2 -3 1
6890 2297 2 -0.35 11.854266368174319 7.245230624983257 81.75963998832013 0 0 0
6567 2189 2 -0.35 14.01943740246473 8.503268472029706 84.12097680583582 0 0 0
6565 2189 1 0.7 13.00360468882122 8.190718150586742 84.65852761073701 0 0 0
6566 2189 2 -0.35 11.929497717273293 7.95340037146436 85.07496372220953 0 0 0
4412 1471 2 -0.35 17.510781465137338 8.897100921322606 83.7888894269199 0 0 0
3306 1102 2 -0.35 13.733393014362774 1.6405283009655935 79.08327804876193 0 0 0
2196 732 2 -0.35 16.651108320915956 4.245120254323331 81.5896818328225 0 0 0
764 255 2 -0.35 19.353184279106024 5.678926924478994 81.95193252852879 0 0 0
763 255 1 0.7 18.689363253202906 6.381788284646196 81.31067381637816 0 0 0
1981 661 1 0.7 15.8589010416651 1.4455123490801027 85.14441455599763 0 0 0
2194 732 1 0.7 15.560677656181221 3.9111346153617346 81.41161957070557 0 0 0
4589 1530 2 -0.35 12.965583153582037 4.742500313434665 83.24002181341899 0 0 0
2468 823 2 -0.35 14.94966951288492 4.680995413886948 85.96000993547305 0 0 0
1982 661 2 -0.35 15.610133664226728 0.8680811141560345 86.13510677044813 0 0 0
765 255 2 -0.35 18.01151891366409 7.071478446189121 80.65850054201832 0 0 0
2467 823 1 0.7 15.408489710174887 5.388477088337459 85.14580538196515 0 0 0
2469 823 2 -0.35 15.9373032124369 5.973471441793043 84.27738262954875 0 0 0
2195 732 2 -0.35 14.49034674029483 3.526183581648588 81.17816014488098 0 0 0
1501 501 1 0.7 14.802197366825459 7.764543697384497 81.04165754209313 0 0 0
1503 501 2 -0.35 14.80360279715943 6.656501833049466 80.76593025204016 0 0 0
4588 1530 1 0.7 12.168853639508583 4.052229481380081 82.85007652865147 0 0 0
4590 1530 2 -0.35 11.351323504163327 3.3376283999846503 82.4428304088602 0 0 0
1362 454 2 -0.35 18.771659876441845 1.162505008235727 82.57856536967473 0 0 0
1502 501 2 -0.35 14.85271795073362 8.885253272874666 81.16853791043525 0 0 0
1983 661 2 -0.35 16.130649947103667 2.0598967834495854 84.20091504115351 0 0 0
612 204 2 -0.35 10.031142929253441 2.0123690758170016 79.70333880095572 0 1 0
6818 2273 2 -0.35 13.219433368777931 0.9504672694921296 84.25820791836394 0 1 0
6105 2035 2 -0.35 18.980787221902084 5.84888560840512 85.51138916604842 0 0 0
1348 450 1 0.7 15.925935438293399 0.5194431541716713 81.29633354429679 0 0 0
1350 450 2 -0.35 16.544524483332623 1.1466663769083847 80.5709735652402 0 0 0
610 204 1 0.7 10.21022398542894 0.9996096654488856 80.23703096289074 0 1 0
4254 1418 2 -0.35 16.815455944857483 10.695831071479589 86.1013598233106 0 0 0
60 20 2 -0.35 22.771133424063052 8.257507065757505 78.17583796827164 0 0 0
1360 454 1 0.7 19.686985554618275 1.287368630252828 83.30045627001749 0 0 0
1361 454 2 -0.35 20.587593928922768 1.3355076069613792 84.01103148550018 0 0 0
3550 1184 1 0.7 20.839750686202294 2.898027354760129 78.6846451734912 0 0 0
3551 1184 2 -0.35 21.835643737236794 2.4341986091327215 78.29534945748613 0 0 0
7044 2348 2 -0.35 22.53461281549947 6.439571134897246 81.7017187896866 -4 3 1
7042 2348 1 0.7 21.930731732156346 7.407363123664057 81.84204246623122 -4 3 1
1710 570 2 -0.35 24.54291266295431 2.36078614028342 76.32816945381039 -1 0 0
1708 570 1 0.7 25.009778002054848 1.7323450806662222 77.15268014231913 -1 0 0
1709 570 2 -0.35 25.444566269325097 1.0133768499425568 77.92716619268516 -1 0 0
940 314 1 0.7 22.88347494479901 3.456776189276919 81.54238370644299 -1 0 0
942 314 2 -0.35 21.754414834048553 3.2647976176873774 81.49553257414514 -1 0 0
5485 1829 1 0.7 26.71464215097243 6.380698571605644 82.60489877429146 0 0 0
5486 1829 2 -0.35 25.842949616327267 6.971611246602399 82.12747435272489 0 0 0
132 44 2 -0.35 23.655530083046877 0.6329565953523641 80.93816391340847 0 0 0
5487 1829 2 -0.35 27.522662661233042 5.688637321675269 83.0274018281512 0 0 0
941 314 2 -0.35 23.98889478658573 3.7847514136319256 81.49427254812204 -1 0 0
1379 460 2 -0.35 26.914438412347053 2.2588668435950208 84.39123947787216 0 0 0
1378 460 1 0.7 25.983438429386297 1.606657521473277 84.10665732299806 0 0 0
3968 1323 2 -0.35 23.570472215737976 7.850523227138062 84.32272668731379 -1 0 0
2268 756 2 -0.35 27.499888085822512 5.710933050948114 80.11186244425744 -1 0 0
5175 1725 2 -0.35 27.799119968090885 7.9765347699648 84.67619406596015 0 0 0
3969 1323 2 -0.35 24.621479119435683 7.573726770320185 86.35639107550033 -1 0 0