ITEM: TIMESTEP
0
ITEM: NUMBER OF NODES
8
ITEM: BOX BOUNDS
0 40
0 40
0 240
ITEM: NODES
1 1 0 0 0
2 1 40 0 0
3 1 40 40 0
4 1 0 40 0
5 1 0 0 240
6 1 40 0 240
7 1 40 40 240
8 1 0 40 240
ITEM: TIMESTEP
0
ITEM: NUMBER OF CUBES
1
ITEM: CUBES
1 1 1 2 3 4 5 6 7 8
