LAMMPS data file via write_data, version 29 Aug 2024, timestep = 200000, units = real

7050 atoms
2 atom types
4700 bonds
1 bond types
2350 angles
1 angle types

0 40 xlo xhi
0 40 ylo yhi
0 240 zlo zhi

Masses

1 12.0107
2 15.9994

Pair Coeffs # lj/cut/coul/long/omp

1 0.0536545 2.8
2 0.156989 3.05

Bond Coeffs # harmonic/omp

1 1028.27 1.16

Angle Coeffs # harmonic/omp

1 55.96 180

Atoms # full

6678 2226 2 -0.35 7.019702126971198 18.426075332490047 21.704811396293707 2 -1 1
1803 601 2 -0.35 2.526756232509944 16.436130984974998 41.717580808118484 3 1 0
1801 601 1 0.7 3.673859466668039 16.24521403862465 41.77594820430022 3 1 0
1880 627 2 -0.35 2.061988741891611 19.105829568567902 88.72107786566191 0 0 0
1802 601 2 -0.35 4.816104947084354 15.95254185289698 41.72757144533055 3 1 0
135 45 2 -0.35 15.185974969376701 2.401742021897164 69.61609663799796 0 0 0
133 45 1 0.7 15.012878207132827 2.1504764640256027 68.50832747969584 0 0 0
134 45 2 -0.35 14.981103056609529 1.910963217848793 67.34879748395659 0 0 0
1425 475 2 -0.35 8.433297727765098 7.638081434264032 74.39186292619736 6 -1 1
6910 2304 1 0.7 5.588269551721185 6.810218023385199 79.0926916432324 -1 0 0
1423 475 1 0.7 8.536485524600115 8.62273899649273 73.7559661999694 6 -1 1
5391 1797 2 -0.35 4.237819829045636 3.9151555046308455 78.40049043103491 1 1 0
5389 1797 1 0.7 3.2806635273802893 4.232471723787529 77.83809424609376 1 1 0
5406 1802 2 -0.35 6.896555837684211 10.020421438480602 78.11933239729092 0 1 0
6911 2304 2 -0.35 5.517334625449163 6.959007790820646 77.93221204758215 -1 0 0
5390 1797 2 -0.35 2.2735401455506707 4.578162433126315 77.2984276099554 1 1 0
1424 475 2 -0.35 8.675608989607674 9.57300767812773 73.09893091276096 6 -1 1
1763 588 2 -0.35 3.8356569740997015 1.4588005801069057 76.61282996382047 0 1 0
1762 588 1 0.7 4.353713996810729 0.6294266390603158 75.94815046126374 0 1 0
1962 654 2 -0.35 19.08268283560477 17.315268716560848 93.42986689622128 0 1 0
3766 1256 1 0.7 8.113772035274623 0.9308669944739869 76.71607051567202 0 1 0
3768 1256 2 -0.35 7.612970440832703 0.9099618642524682 77.77541361662905 0 1 0
1846 616 1 0.7 0.37098765954028384 0.36631581030873167 79.23702121403673 0 1 0
3767 1256 2 -0.35 8.59844253328665 0.8488387030485628 75.66230446601313 0 1 0
124 42 1 0.7 3.3911638761932683 0.4543473840762555 81.39438972574062 0 0 0
1848 616 2 -0.35 0.6371846666353752 1.2716009072303756 78.58253411491587 0 1 0
5453 1818 2 -0.35 1.2383140752723623 0.593298332818325 75.54607318779448 1 1 0
1904 635 2 -0.35 9.583119398730437 6.233306927489738 76.97657890400012 0 1 0
1905 635 2 -0.35 9.916346256869716 8.512734836580279 77.07744879489135 0 1 0
1903 635 1 0.7 9.694786944003354 7.38090484392535 77.05225493468109 0 1 0
70 24 1 0.7 19.2045783400301 8.596646710805656 77.7241669720658 0 0 0
265 89 1 0.7 17.847919945113592 4.203128602629267 76.26373987294046 -1 0 0
266 89 2 -0.35 18.425810244470483 4.7263051834562155 77.10458084867942 -1 0 0
267 89 2 -0.35 17.24281317570512 3.7562644954153486 75.3656144141943 -1 0 0
3714 1238 2 -0.35 14.133747591337485 4.56420968692291 76.27513366632978 0 0 0
5526 1842 2 -0.35 13.518993056456011 6.758201199024041 71.25318315767197 0 1 0
5369 1790 2 -0.35 11.3348564650574 3.588269305765997 77.91753881234104 0 1 0
5524 1842 1 0.7 13.251442044025483 7.84866430938491 70.98349643520154 0 1 0
123 41 2 -0.35 16.449824538906206 7.414466726092346 75.17958758161367 0 1 0
121 41 1 0.7 15.2717585153483 7.298975136389001 75.06709388066061 0 1 0
122 41 2 -0.35 14.11690384396097 7.167531378574069 75.04730344483042 0 1 0
5368 1790 1 0.7 11.761600747940484 4.477003804364525 78.50496311862115 0 1 0
3712 1238 1 0.7 13.835747301583849 3.9573715278057007 75.34094627179664 0 0 0
45 15 2 -0.35 17.328814020739035 13.655087042653076 93.43476503817045 0 0 0
3713 1238 2 -0.35 13.645810098953854 3.2395735333755256 74.43835531857897 0 0 0
3677 1226 2 -0.35 19.337148460456177 0.7410271942588255 80.04161905432504 0 0 0
72 24 2 -0.35 18.814960407886808 8.312368419506374 78.79059999100366 0 0 0
1818 606 2 -0.35 16.811452014976563 2.5449296235642986 78.56888570379672 0 1 0
1816 606 1 0.7 15.837566345432297 3.047196753973135 78.98953236728804 0 1 0
801 267 2 -0.35 8.367966737320868 4.1298315666149925 95.56394839763149 0 0 0
5404 1802 1 0.7 6.938233395960643 9.991056449810928 76.90923026987728 0 1 0
5405 1802 2 -0.35 6.890957689890156 9.891051424045797 75.75743559985712 0 1 0
246 82 2 -0.35 9.84388547203081 14.166054618665056 71.17772703006843 0 0 0
5347 1783 1 0.7 1.9885319094007559 13.745269699341335 75.47431928797909 0 0 0
5349 1783 2 -0.35 1.0778340077463469 14.424499422105415 75.25087164865725 0 0 0
5348 1783 2 -0.35 2.864102210002833 12.968035429692673 75.5811483490251 0 0 0
3685 1229 1 0.7 4.937626061016198 12.789878782334354 78.29489028849451 1 0 0
3687 1229 2 -0.35 4.157189612592591 13.08856298530121 79.08732777589162 1 0 0
3686 1229 2 -0.35 5.733551945211527 12.631936511876251 77.46540564225919 1 0 0
167 56 2 -0.35 10.80823509701525 12.311235898170963 76.79292745579102 0 0 0
1901 634 2 -0.35 9.002212497851524 16.278549148749928 76.73706752621094 0 1 0
1900 634 1 0.7 9.989712136357507 16.572739799358303 76.216338840306 0 1 0
1902 634 2 -0.35 10.947132265396675 16.79267950954182 75.60872028489878 0 1 0
405 135 2 -0.35 1.672549221218536 18.085045531876702 77.19010162711845 0 0 0
1840 614 1 0.7 5.529616435579227 17.173986950242153 76.37155312758055 0 0 0
413 138 2 -0.35 11.37569249687018 12.116390064506362 93.19632639207447 0 0 0
1842 614 2 -0.35 4.655230576834912 16.4390813069856 76.58710088818111 0 0 0
7000 2334 1 0.7 1.514127489548952 11.938283979111494 78.86597192065557 -3 0 1
7001 2334 2 -0.35 1.1459474950515827 12.701369453863233 78.06059925118319 -3 0 1
1841 614 2 -0.35 6.430835895261744 17.9058525367089 76.16821527793621 0 0 0
244 82 1 0.7 9.82026382292078 13.911656418880414 72.31561853380725 0 0 0
166 56 1 0.7 10.82757681513242 11.73769432342457 77.81160102652342 0 0 0
5525 1842 2 -0.35 13.004483458563904 8.909547562565443 70.65309144413247 0 1 0
245 82 2 -0.35 9.757286797612604 13.605971940014578 73.42531664269215 0 0 0
168 56 2 -0.35 10.729318982972188 11.247233000993734 78.84467176827793 0 0 0
6962 2321 2 -0.35 12.70069861318703 13.690292443032913 74.45912547278688 -3 7 0
6961 2321 1 0.7 12.88857966698902 13.880473710497302 75.59699180643064 -3 7 0
6963 2321 2 -0.35 13.160247657471345 14.057145621014497 76.73522576903406 -3 7 0
5341 1781 1 0.7 13.811495731636716 13.282223565739578 70.0316171447635 0 0 0
5342 1781 2 -0.35 13.037878965938576 13.80296341577996 70.69471020527394 0 0 0
5343 1781 2 -0.35 14.727994887929778 12.791710400465732 69.50851160266934 0 0 0
7042 2348 1 0.7 18.30696500251936 18.234797268158964 77.71418877787751 6 -2 1
407 136 2 -0.35 14.280670021572298 16.788252086715488 77.02455754265557 0 0 0
1820 607 2 -0.35 16.41127909690138 14.42823842409441 77.59637210183085 0 0 0
406 136 1 0.7 14.294871120853347 16.370313313746216 78.11638167781645 0 0 0
3792 1264 2 -0.35 17.62249638450114 16.382591396104562 72.51567326466652 0 0 0
3790 1264 1 0.7 16.908807952663444 16.195419941606495 73.40905167060617 0 0 0
1938 646 2 -0.35 19.024265838850347 12.867168403930691 78.27618671980007 0 1 0
3791 1264 2 -0.35 16.154300231102667 15.921221791167852 74.29550145833207 0 0 0
7043 2348 2 -0.35 17.20206715531789 18.032441896360417 77.47975280901858 6 -2 1
1819 607 1 0.7 16.133082426789915 13.315687664770252 77.78029005147123 0 0 0
3594 1198 2 -0.35 10.661335056443598 14.91818293609586 79.56419663684879 1 0 0
408 136 2 -0.35 14.409180917886392 16.035357169779573 79.23390736524739 0 0 0
7044 2348 2 -0.35 19.411921252209662 18.394784742518144 77.99327113671463 6 -2 1
6912 2304 2 -0.35 5.690724944730951 6.614509248534901 80.24832709778606 -1 0 0
3504 1168 2 -0.35 8.50441986886963 4.821460009214762 80.02087600695444 0 0 0
3502 1168 1 0.7 7.736592241945967 4.231236533104202 80.68884330085572 0 0 0
3503 1168 2 -0.35 6.95331359586005 3.66869817617303 81.31747630063126 0 0 0
162 54 2 -0.35 7.814330037809922 6.788672568363897 82.2587981908053 0 0 0
161 54 2 -0.35 6.5187682610943565 8.28373343152865 83.48385190094501 0 0 0
160 54 1 0.7 7.165021141310477 7.4936439231576335 82.90808385311328 0 0 0
5428 1810 1 0.7 2.3033829574839317 4.172117632607403 82.4219059646499 1 1 0
5531 1844 2 -0.35 6.961419319413712 3.3496516048880522 84.00631479182198 0 1 0
5530 1844 1 0.7 7.6916109738814455 4.163180587402387 84.39696830232327 0 1 0
5532 1844 2 -0.35 8.384747080182755 4.9920278988865086 84.74207638900853 0 1 0
302 101 2 -0.35 2.2949879714789305 7.274416226319245 80.31874447120926 0 1 0
301 101 1 0.7 1.1637266878661399 7.149250367401429 80.28008896925365 0 1 0
421 141 1 0.7 3.3670921174142086 2.301821667232132 85.89403652281673 0 0 0
5429 1810 2 -0.35 2.6732117941108986 3.8210299783834594 83.48985420989166 1 1 0
5625 1875 2 -0.35 8.04242907184462 7.935755558335806 88.71232628238593 1 1 0
5623 1875 1 0.7 7.565339841264251 7.936465350751173 87.65990155147502 1 1 0
1931 644 2 -0.35 7.817292978775448 0.6488199920922338 82.5931086538539 0 1 0
1930 644 1 0.7 6.917555845624018 0.6473428966741533 83.31470786910134 0 1 0
423 141 2 -0.35 4.08733873568062 2.9322318251188664 86.60842978244942 0 0 0
5624 1875 2 -0.35 6.959243511514785 7.8527971692296115 86.64863428824181 1 1 0
1932 644 2 -0.35 5.94985515420082 0.514691909319568 83.9875818756089 0 1 0
5430 1810 2 -0.35 2.0016438823208658 4.422814664815522 81.34372636981418 1 1 0
153 51 2 -0.35 0.8277337357644523 4.774576844759862 86.2187465733217 0 0 0
151 51 1 0.7 1.007480833073819 5.0084973778447095 87.32409101372222 0 0 0
1960 654 1 0.7 18.80656761505905 17.33475677553102 92.29532179095344 0 1 0
126 42 2 -0.35 2.5887994021684584 1.2892627399753667 81.23478703771636 0 0 0
5613 1871 2 -0.35 10.190071244466433 5.406225596894453 87.21190323107456 0 1 0
2012 671 2 -0.35 9.951749864092317 0.7392657230500187 79.83297545124394 0 1 0
152 51 2 -0.35 1.2805801273320472 5.388272048718015 88.42369682876244 0 0 0
137 46 2 -0.35 3.604381189411483 9.587719424267029 82.24641506299768 0 0 0
1982 661 2 -0.35 6.47061787385419 5.130705667889391 88.4976123793493 0 1 0
1995 665 2 -0.35 5.234030243920117 6.197848142735344 84.65034675766017 0 0 0
1993 665 1 0.7 4.44764727124779 6.454175638514772 85.46166993913981 0 0 0
3849 1283 2 -0.35 0.24862792859434227 7.872600596217443 87.17795462973018 1 0 0
3525 1175 2 -0.35 10.375779472865235 7.63858389575547 79.91314882415377 1 -1 0
5370 1790 2 -0.35 12.210170971942283 5.400663218424466 79.01169402977152 0 1 0
391 131 1 0.7 16.24023971880121 6.152147386625685 79.59066785463432 0 0 0
393 131 2 -0.35 16.905960309598218 5.680733944525695 80.39132858175624 0 0 0
392 131 2 -0.35 15.59219295147251 6.676249948169911 78.82422496182349 0 0 0
3643 1215 1 0.7 11.54637769222745 19.039937509343456 84.03774372270384 0 0 0
3523 1175 1 0.7 10.623898188067836 7.254889982274754 80.9730111210057 1 -1 0
278 93 2 -0.35 13.234066506738502 1.6501813699305612 84.85829874743196 0 0 0
5634 1878 2 -0.35 18.628606435796065 3.220372137410794 81.87061462469018 0 1 0
2066 689 2 -0.35 0.12213319802007601 1.2966938513474195 95.11860109231822 0 1 0
277 93 1 0.7 13.74242345813828 1.5663803895335213 85.88578469277029 0 0 0
3522 1174 2 -0.35 17.07876385445109 0.6923192247373713 86.07486614163992 0 0 0
3524 1175 2 -0.35 10.889415948479012 6.959713218443912 82.04627405410662 1 -1 0
3545 1182 2 -0.35 9.873789952965671 3.1345212859667178 82.60494156980336 0 0 0
1817 606 2 -0.35 14.891626982830479 3.569349934486479 79.43166999438947 0 1 0
3546 1182 2 -0.35 11.199495898544924 1.2376391002019183 82.50963808975098 0 0 0
3544 1182 1 0.7 10.491023483432736 2.1446323438374266 82.55846392814145 0 0 0
194 65 2 -0.35 12.920288330542753 8.307202827581168 84.24854525404345 0 0 0
3692 1231 2 -0.35 15.224646134125521 3.6429937810676933 83.04619294188375 1 0 0
5611 1871 1 0.7 10.759719863062294 5.725774926401663 86.26092214134167 0 1 0
1911 637 2 -0.35 15.866338196249467 8.893698761657237 80.64042399893003 0 1 0
5612 1871 2 -0.35 11.178614341144087 6.071869092577059 85.23467834239305 0 1 0
3691 1231 1 0.7 14.448877535454281 4.397198633707712 82.59647179257806 1 0 0
3693 1231 2 -0.35 13.700014429674983 5.130965750887628 82.10933587904341 1 0 0
5561 1854 2 -0.35 16.486415592083254 3.8848353236950723 85.87220974765276 0 1 0
5560 1854 1 0.7 16.81721561634189 4.819463330313676 85.27623297308999 0 1 0
5562 1854 2 -0.35 17.015213043456917 5.811539738533513 84.70703120697162 0 1 0
3468 1156 2 -0.35 19.39790121254105 5.245316834757 74.12380521954329 0 1 0
5478 1826 2 -0.35 0.08677893171643786 7.455233306364031 90.35635133756982 1 1 0
5299 1767 1 0.7 16.139239972097165 8.401840821623027 86.2002580238236 0 1 0
5300 1767 2 -0.35 15.31347021439921 8.17438345979281 87.00400080521311 0 1 0
5301 1767 2 -0.35 17.022013906127267 8.655642941186795 85.50320824141232 0 1 0
193 65 1 0.7 13.518552339697408 7.377412410930124 84.55199312398726 0 0 0
195 65 2 -0.35 14.059564750277714 6.470687936149431 85.00653388789554 0 0 0
5498 1833 2 -0.35 15.468341549153964 0.6300259407726526 82.46020441331605 0 1 0
279 93 2 -0.35 14.264695282936486 1.431575458022368 86.92007968063022 0 0 0
3641 1214 2 -0.35 0.6555054057668561 2.059457783524966 89.01991331939188 1 0 0
3520 1174 1 0.7 17.629667428291356 1.3846096001272423 86.82155572410345 0 0 0
2108 703 2 -0.35 12.91810748265635 4.804473224779788 87.21182592864214 -1 0 0
31 11 1 0.7 19.271980763542146 10.260437698010211 81.50256447053046 0 0 0
55 19 1 0.7 14.464998534298395 13.698250723783314 90.78740554215979 0 0 0
8 3 2 -0.35 8.0401524779127 12.06925122123463 80.06612901948338 1 0 0
1915 639 1 0.7 8.910619367593167 10.283460981222426 85.09063274732769 0 1 0
1916 639 2 -0.35 9.387985081394966 9.214372980995426 85.13687455484377 0 1 0
2142 714 2 -0.35 6.575181639348521 15.801573504012074 80.58385758577961 0 1 0
7002 2334 2 -0.35 1.9447933947179217 11.122310891210462 79.55558594261207 -3 0 1
1917 639 2 -0.35 8.36319506022824 11.297136376909583 85.03523269655344 0 1 0
9 3 2 -0.35 8.450242842514522 10.172210318318825 81.33753559306398 1 0 0
354 118 2 -0.35 1.6384352503178286 11.653050011977617 83.70194952255233 0 0 0
216 72 2 -0.35 5.242186125165582 14.277717694949734 83.30426215921081 0 0 0
138 46 2 -0.35 4.921597176836995 9.972074592701244 80.36627496973574 0 0 0
214 72 1 0.7 5.466293251983662 13.151882342238574 83.32932108629154 0 0 0
136 46 1 0.7 4.198343333940905 9.742753007552263 81.2794927451713 0 0 0
1797 599 2 -0.35 4.615144785562741 17.204643876755743 85.45690139302818 0 1 0
1796 599 2 -0.35 3.220890021475814 15.349567225736038 85.66240265470566 0 1 0
215 72 2 -0.35 5.619533572845302 12.01809506637338 83.41285314024654 0 0 0
403 135 1 0.7 1.5398604945133487 17.00593628945233 77.65066798924121 0 0 0
404 135 2 -0.35 1.3941048370264508 15.949746265032143 78.12719160723324 0 0 0
7 3 1 0.7 8.24449260258559 11.109852353720935 80.67677203193595 1 0 0
2140 714 1 0.7 5.993340041477756 16.551165395745777 79.92405029049458 0 1 0
2141 714 2 -0.35 5.331442044562449 17.2759287815679 79.31426685577478 0 1 0
1972 658 1 0.7 11.44868293698469 18.50220926472243 88.65365601351603 0 0 0
1795 599 1 0.7 3.8963989137269244 16.291920179779197 85.58583052231813 0 1 0
3498 1166 2 -0.35 3.3569811322941074 15.55223616337605 80.81548129939898 1 0 0
3496 1166 1 0.7 2.823706298100256 15.720653816331122 81.82741872309724 1 0 0
3497 1166 2 -0.35 2.207130601595941 15.939172922775438 82.76039568470897 1 0 0
587 196 2 -0.35 18.954878311964876 7.507440680950363 93.37132276611801 0 0 0
205 69 1 0.7 6.912674777968274 18.430360990008776 82.91983329435054 0 0 0
227 76 2 -0.35 7.289178451721549 16.991367865073855 88.105928102359 0 0 0
206 69 2 -0.35 7.480968304280391 18.44703939578234 83.88991158473064 0 0 0
352 118 1 0.7 0.8855807995704857 10.979033235249194 83.04793248200968 0 0 0
4554 1518 2 -0.35 9.21720554631666 15.75822716434697 83.51347674761124 1 0 0
4552 1518 1 0.7 9.489231675397962 16.357798594453865 84.46678061239828 1 0 0
226 76 1 0.7 7.172153141428774 18.118358021773012 87.86095990109393 0 0 0
353 118 2 -0.35 0.07963812457302871 10.450018420613958 82.37480355666834 0 0 0
78 26 2 -0.35 4.209673150430579 11.502928653775715 86.33556917565033 0 0 0
76 26 1 0.7 3.917671637180942 10.525760797076249 85.74601612428825 0 0 0
5576 1859 2 -0.35 2.3415453454186883 18.868383205893743 79.96667051030319 1 0 0
1973 658 2 -0.35 10.414616722158303 18.884624121370326 89.00133272780599 0 0 0
1977 659 2 -0.35 0.3327147906259487 13.506926410074664 81.19486002757222 0 1 0
2696 899 2 -0.35 7.2664110594788776 18.602833197298906 94.6281745450538 0 0 0
43 15 1 0.7 17.948272681997498 13.919188137451407 92.48942586056513 0 0 0
231 77 2 -0.35 9.789667995781459 10.487405139447416 88.06104011296591 0 0 0
77 26 2 -0.35 3.817234603510098 9.5523739679193 85.14885140364339 0 0 0
303 101 2 -0.35 0.023784597310561834 6.959224839147272 80.16637356818026 0 1 0
1909 637 1 0.7 16.098629843965355 9.828309860984309 81.29534065761479 0 1 0
32 11 2 -0.35 18.810901648007295 11.239113746010542 81.11103826223002 0 0 0
12 4 2 -0.35 11.125297790608146 10.881562578569303 82.99017004472961 0 0 0
1910 637 2 -0.35 16.191562354334582 10.724379092615905 82.0257193159221 0 1 0
2039 680 2 -0.35 11.567900780846529 11.830407683004696 85.77824363911319 0 1 0
3592 1198 1 0.7 10.81262424377333 14.077325002900754 80.29833175145245 1 0 0
10 4 1 0.7 12.015706830941104 10.501674187302417 82.38842658772023 0 0 0
4553 1518 2 -0.35 9.653015894844067 16.85161642415683 85.50339408570807 1 0 0
108 36 2 -0.35 18.81915699100324 13.393052650941675 86.21787583956174 0 0 0
11 4 2 -0.35 12.884221447919732 9.998033065395953 81.80761760816151 0 0 0
3644 1215 2 -0.35 10.920801430596805 18.675334607067928 83.15253235115931 0 0 0
1821 607 2 -0.35 15.905457332863854 12.198211142447695 77.9049165085948 0 0 0
3593 1198 2 -0.35 10.88643954798469 13.194449993906437 81.01034158172914 1 0 0
6971 2324 2 -0.35 14.472937758784276 13.505326637190393 82.20158286851715 0 1 0
5621 1874 2 -0.35 15.65953692112684 16.090440841823288 83.42568695591801 0 1 0
6970 2324 1 0.7 15.356610405689102 13.82147718870768 81.5097209723828 0 1 0
6972 2324 2 -0.35 16.138453344738494 14.065294848619185 80.66018625370981 0 1 0
3630 1210 2 -0.35 14.91214453464956 18.179823713101555 81.55138746752266 1 0 0
3628 1210 1 0.7 13.955111571118408 17.57778361763706 81.80502809285925 1 0 0
107 36 2 -0.35 16.714933895345855 13.88078717273161 85.42056760075488 0 0 0
106 36 1 0.7 17.773341903444067 13.605158515182616 85.7929751510086 0 0 0
3629 1210 2 -0.35 12.96481012141628 16.980520160817154 82.06360012494126 1 0 0
299 100 2 -0.35 13.018323083307342 16.595415461869294 84.95402544634683 0 0 0
5620 1874 1 0.7 16.12705551955542 16.56846903752574 84.36948348681082 0 1 0
298 100 1 0.7 13.315669595877866 15.717944607870908 85.63996075260214 0 0 0
2040 680 2 -0.35 10.526624707198952 13.88865284641617 85.62900925533837 0 1 0
2038 680 1 0.7 10.993828714172775 12.824300978411012 85.69412703518267 0 1 0
300 100 2 -0.35 13.63626280326547 14.804856618799674 86.27298013772557 0 0 0
5622 1874 2 -0.35 16.535333856354583 17.10859238575583 85.31555505229656 0 1 0
155 52 2 -0.35 13.400766714886505 11.016542085505854 88.25728052492657 0 0 0
34 12 1 0.7 18.198955174773115 16.209447176037436 81.07693359272177 0 0 0
36 12 2 -0.35 17.76814630890585 16.973997320899677 80.3195596227746 0 0 0
154 52 1 0.7 14.06672185833166 11.41521304112592 87.38529092176911 0 0 0
35 12 2 -0.35 18.597918968365796 15.441516843851451 81.86449253239543 0 0 0
306 102 2 -0.35 13.788670755838607 0.9420870214820448 77.89025996551858 0 1 0
1974 658 2 -0.35 12.431482293999894 18.113151171469323 88.18360421523853 0 0 0
5632 1878 1 0.7 19.353410935431647 3.537977627739157 81.04480194975928 0 1 0
156 52 2 -0.35 14.755177476362833 11.71677070408828 86.50545592509972 0 0 0
4754 1585 2 -0.35 0.08827545980481097 8.780321482590015 95.73520848651687 1 0 0
2065 689 1 0.7 0.6656455657152753 0.3949948216689013 95.60948595118381 0 1 0
1981 661 1 0.7 6.596094846239497 4.001138428495803 88.2113155220223 0 1 0
3485 1162 2 -0.35 1.1929577262271325 9.164347839286748 92.984333995496 1 0 0
800 267 2 -0.35 7.137237983255868 5.231262396188326 93.957938644001 0 0 0
4486 1496 1 0.7 1.3133311322708394 4.538352143861864 94.38994730005822 1 0 0
3847 1283 1 0.7 1.1820498472390413 8.462411996668049 87.4692030832233 1 0 0
5555 1852 2 -0.35 2.079131101700974 0.42066980855479946 92.9779501602821 1 1 0
1994 665 2 -0.35 3.6808577584113085 6.603181174431699 86.30810126599548 0 0 0
5477 1826 2 -0.35 1.5177209289650972 6.451611813646671 91.7784639952577 1 1 0
2224 742 1 0.7 8.98275659839586 9.533657703443753 92.33871720737918 0 1 0
269 90 2 -0.35 4.107640077101413 9.157455450101716 91.17152124120275 0 0 0
2225 742 2 -0.35 8.881157884466472 8.453399547313934 92.79365106217972 0 1 0
2324 775 2 -0.35 3.7850943076726296 7.141301532312041 94.50033421651004 0 1 0
2323 775 1 0.7 4.799917809624818 7.634270792045141 94.22491188366487 0 1 0
5476 1826 1 0.7 0.8063057122341621 6.902331173169301 91.0320535435637 1 1 0
130 44 1 0.7 4.505176864480385 3.4438796425773615 92.01051186119683 0 0 0
132 44 2 -0.35 3.518114516315687 3.2724021488282213 92.6002590748803 0 0 0
131 44 2 -0.35 5.461860847038061 3.5556404269732598 91.3390793203969 0 0 0
2325 775 2 -0.35 5.8131481319260665 8.178315445779223 94.01965992113497 0 1 0
268 90 1 0.7 4.527067885091951 8.963873378422848 90.1059396984585 0 0 0
270 90 2 -0.35 4.85183188505482 8.818333724752778 88.99675815368785 0 0 0
1983 661 2 -0.35 6.803373935985169 2.8778394219415326 87.98082403835313 0 1 0
895 299 1 0.7 8.265506623507864 1.679818840934032 93.97636731550132 0 0 0
896 299 2 -0.35 7.595816575824247 2.0746813382788587 93.09919289866576 0 0 0
2019 673 2 -0.35 8.398779471673933 5.647689243836056 90.98223163589752 0 1 0
2017 673 1 0.7 7.381241241892448 6.212379625411475 90.94194793976627 0 1 0
4488 1496 2 -0.35 0.5128230964196738 4.350877202129078 93.54736603336384 1 0 0
2018 673 2 -0.35 6.306943029225915 6.6876031788980015 90.98124428513586 0 1 0
897 299 2 -0.35 8.9751628232034 1.3400093226385812 94.83728654430979 0 0 0
3848 1283 2 -0.35 2.0011558384494914 9.18894409400347 87.84855355763855 1 0 0
120 40 2 -0.35 10.494818949991174 15.642284224222507 96.25467815548056 0 0 0
799 267 1 0.7 7.715032037553008 4.642832146379298 94.7712801222624 0 0 0
4487 1496 2 -0.35 2.1092390402031316 4.624127762294452 95.25136811113276 1 0 0
1773 591 2 -0.35 17.98746227161595 5.468055314386042 88.37420306960385 0 1 0
1898 633 2 -0.35 13.714097952232457 0.3581462880826922 89.73371091008164 0 1 0
2096 699 2 -0.35 12.609915986816292 0.49310009508375935 96.05639957270591 0 1 0
5378 1793 2 -0.35 18.294970507969886 5.532035494514991 95.47557706713644 0 1 0
804 268 2 -0.35 15.305630573879492 2.2480219021712724 95.80780692786067 0 0 0
3521 1174 2 -0.35 18.09494357737576 2.1091548691554998 87.60921419746614 0 0 0
2109 703 2 -0.35 15.020818463793306 4.990879261730685 88.17865117477014 -1 0 0
5706 1902 2 -0.35 11.29425686850432 1.4782649718956957 88.06259710894474 0 1 0
333 111 2 -0.35 12.832155926833222 7.673284196272773 93.06307497968692 0 0 0
5458 1820 1 0.7 17.406670573925034 1.60633521116491 93.29693051359557 0 1 0
2107 703 1 0.7 13.988152223089187 4.892903355401314 87.6929343174085 -1 0 0
5459 1820 2 -0.35 16.6693477216303 1.8452574530856287 92.44545484839743 0 1 0
1965 655 2 -0.35 13.165518638056277 7.488721397557546 89.58477065045187 0 1 0
64 22 1 0.7 17.257299850258544 9.387341155426821 96.52914695790368 0 0 0
331 111 1 0.7 12.004319893955444 6.8964401862250355 93.10677883515024 0 0 0
1963 655 1 0.7 12.530765248597817 7.767307087569484 88.67812437338634 0 1 0
1964 655 2 -0.35 11.944154732243785 7.948816145742867 87.71187164349786 0 1 0
332 111 2 -0.35 11.232444521722185 6.064526883124818 93.21020406165694 0 0 0
3539 1180 2 -0.35 11.445029183554398 5.307521440247278 90.21756378969187 0 0 0
3538 1180 1 0.7 11.017271841473624 4.308349631067654 90.6435644334666 0 0 0
1771 591 1 0.7 18.183297689866215 4.584795928410296 89.14408312534357 0 1 0
3540 1180 2 -0.35 10.525733390376184 3.271372245531915 90.94092683979916 0 0 0
89 30 2 -0.35 18.05993515367293 8.518029656530384 88.21971309505953 0 0 0
1897 633 1 0.7 13.676090253951534 1.513221309527103 89.92060896430912 0 1 0
1899 633 2 -0.35 13.562558269024265 2.6184369666421787 90.15483428556058 0 1 0
5340 1780 2 -0.35 13.377696834292017 4.396570788993843 93.87098881453676 0 1 0
5338 1780 1 0.7 13.404683328530126 3.2440585389813155 93.63899263116 0 1 0
5339 1780 2 -0.35 13.46887412517489 2.089294388493989 93.43385672143945 0 1 0
88 30 1 0.7 17.658009669858366 8.356662703097314 89.29592877645578 0 0 0
90 30 2 -0.35 17.322839521768174 8.204178084091343 90.38321909534326 0 0 0
17 6 2 -0.35 14.99376113526979 10.710787358493342 91.93228356867392 0 0 0
6152 2051 2 -0.35 15.272160782052724 8.151058105485788 94.41866935334765 0 1 0
6151 2051 1 0.7 15.780495034825135 7.315681555763513 93.81281496761261 0 1 0
6153 2051 2 -0.35 16.242951093480276 6.379154918968548 93.30596948653623 0 1 0
1772 591 2 -0.35 18.349256375134903 3.682291535283071 89.86589768420534 0 1 0
66 22 2 -0.35 17.14401192774009 10.370384878159646 95.86728330652127 0 0 0
1766 589 2 -0.35 10.512412189195574 7.40021226446275 96.2752750029459 0 1 0
5377 1793 1 0.7 17.923950701922674 4.966094837880014 96.40544529249188 0 1 0
5460 1820 2 -0.35 18.103874826254078 1.2554806672844487 94.1241404069645 0 1 0
5704 1902 1 0.7 10.793214528924853 0.6323909926198856 88.67541048007527 0 1 0
2934 978 2 -0.35 7.970743807699395 0.0862311124668299 87.61074476628818 0 1 0
19 7 1 0.7 1.7534759756761888 15.055088304931868 95.3632349623107 0 0 0
118 40 1 0.7 9.402958211936303 15.586320074237342 95.82917371687068 0 0 0
380 127 2 -0.35 2.1094123654761674 18.14905418583174 96.2444169080434 0 0 0
2226 742 2 -0.35 9.090975958925764 10.60868358273456 91.90349318163248 0 1 0
3484 1162 1 0.7 2.125203886241013 9.806864505594609 93.25508548599763 1 0 0
119 40 2 -0.35 8.309092767822742 15.574719280097067 95.43752216874398 0 0 0
230 77 2 -0.35 10.990647896144122 9.808661451202251 89.92427880138952 0 0 0
1881 627 2 -0.35 1.3581290874774394 17.323742954297497 87.3948348428356 0 0 0
229 77 1 0.7 10.365171539872494 10.108458955182824 89.00038015210652 0 0 0
1118 373 2 -0.35 5.005734836505157 13.75510611404155 94.62386968647029 0 0 0
780 260 2 -0.35 0.47966617557839936 16.83010798101993 90.5227510584338 0 0 0
1879 627 1 0.7 1.7922014567855271 18.170036164294594 88.06968034768427 0 0 0
3853 1285 1 0.7 4.403211236498022 16.655745521435495 92.82141623680732 1 0 0
6921 2307 2 -0.35 6.884204518193476 11.813457717216277 90.28442261425639 0 0 0
1119 373 2 -0.35 6.805999857413657 13.317955209346364 93.2522975274084 0 0 0
6919 2307 1 0.7 7.074982554040408 12.945216272859588 90.13315486935109 0 0 0
6920 2307 2 -0.35 7.241161737257076 14.087873651022703 89.88271494337943 0 0 0
2697 899 2 -0.35 5.277996516397181 17.954109556574977 95.64248161299365 0 0 0
3486 1162 2 -0.35 2.982568975326582 10.526635724718187 93.55096363442502 1 0 0
20 7 2 -0.35 1.6569715394238695 14.740487085198533 94.23117273300099 0 0 0
953 318 2 -0.35 3.8932760560355946 11.992364072583692 90.339677591875 0 0 0
952 318 1 0.7 2.826511285674231 11.678184275392685 90.59910706483362 0 0 0
954 318 2 -0.35 1.7411957664994893 11.387061624513443 90.93903646362483 0 0 0
3819 1273 2 -0.35 8.610110833873042 16.012939715957053 91.89513169057892 0 0 0
221 74 2 -0.35 2.2891733075863185 14.20448367215939 88.9567437766551 0 0 0
220 74 1 0.7 3.072915675557578 15.003869978699406 89.22747898751929 0 0 0
1117 373 1 0.7 5.947436627321458 13.524127253537813 94.00696418584276 0 0 0
222 74 2 -0.35 3.798889849585032 15.916808276636676 89.31359669613869 0 0 0
3818 1273 2 -0.35 7.829871531032575 18.0801304361864 91.17519916901878 0 0 0
3817 1273 1 0.7 8.235785129570933 17.031345541654936 91.48532100576469 0 0 0
2695 899 1 0.7 6.248399865293257 18.40107613881312 95.16795554838065 0 0 0
3855 1285 2 -0.35 5.524228728829211 16.357690766602847 92.96709637187192 1 0 0
3854 1285 2 -0.35 3.2663869115215753 16.8692688430217 92.71520155268522 1 0 0
778 260 1 0.7 0.15373837909049104 17.47222240056074 91.4366914275993 0 0 0
414 138 2 -0.35 10.45478091318492 12.329338116948463 95.32991125268299 0 0 0
207 69 2 -0.35 6.375997743185455 18.364651755714 81.89890187557374 0 0 0
870 290 2 -0.35 12.143709894359871 18.78274500491273 94.46276164250466 0 0 0
1961 654 2 -0.35 18.551600423340926 17.25851526669931 91.17000255499464 0 1 0
325 109 1 0.7 18.479890010483253 11.674950516193443 89.2221357930724 0 0 0
304 102 1 0.7 12.964267046120924 0.11580101221860656 77.74281303636525 0 1 0
2139 713 2 -0.35 11.54023867825636 14.201995565236437 91.01462096151951 0 0 0
2137 713 1 0.7 11.359921814096182 14.608105599595909 92.0873794061105 0 0 0
320 107 2 -0.35 14.936591827510837 16.527783030800276 95.11636511810542 0 0 0
3448 1150 1 0.7 19.026243276685967 11.097176396804826 93.36065629445226 0 0 0
18 6 2 -0.35 14.65900136571525 11.21052252857133 94.18108945677511 0 0 0
16 6 1 0.7 14.830239565825192 10.96456865658017 93.05753343684302 0 0 0
3450 1150 2 -0.35 18.25078561709808 10.744154317464492 92.6139612441975 0 0 0
295 99 1 0.7 9.96712972405753 14.803120668551005 88.73693701965338 0 0 0
297 99 2 -0.35 10.127840871741924 15.926401023813103 88.95171169680185 0 0 0
3850 1284 1 0.7 16.297398676362466 16.316467060160843 88.931473878596 0 0 0
56 19 2 -0.35 14.499360383597395 13.765043307752421 91.95220658832329 0 0 0
327 109 2 -0.35 17.3387329158213 11.466332741213613 89.25548497255029 0 0 0
321 107 2 -0.35 15.872036295721328 16.920916905813712 92.99306605301516 0 0 0
44 15 2 -0.35 18.535468798464755 14.117749670347246 91.50613705453401 0 0 0
401 134 2 -0.35 13.146788717815248 18.09936785358728 91.6354590623992 0 0 0
412 138 1 0.7 10.910801032480553 12.211438566716106 94.25940719942777 0 0 0
400 134 1 0.7 13.670143889811952 18.978068360901077 91.09738523023016 0 0 0
3528 1176 2 -0.35 0.2757206415310414 7.729575061329995 83.85856774831568 1 0 0