LAMMPS data file via write_data, version 29 Aug 2024, timestep = 4000000, units = real

7050 atoms
2 atom types
4700 bonds
1 bond types
2350 angles
1 angle types

0 40 xlo xhi
0 40 ylo yhi
0 240 zlo zhi

Masses

1 12.0107
2 15.9994

Pair Coeffs # lj/cut/coul/long/omp

1 0.0536545 2.8
2 0.156989 3.05

Bond Coeffs # harmonic/omp

1 1028.27 1.16

Angle Coeffs # harmonic/omp

1 55.96 180

Atoms # full

6579 2193 2 -0.35 19.45313209338162 0.45275590085279643 6.643857943235385 4 -5 1
5249 1750 2 -0.35 12.341433799768373 2.8232979869616748 12.195491385981311 -4 0 0
5250 1750 2 -0.35 13.871521855729965 1.37971559940457 11.188551151623734 -4 0 0
5248 1750 1 0.7 13.06460334260975 2.090239412121249 11.68413042967198 -4 0 0
2945 982 2 -0.35 19.504420242468864 17.20445022307473 18.318660044173598 -1 0 1
2944 982 1 0.7 18.877226541472616 18.14750014465762 18.552839258855244 -1 0 1
2946 982 2 -0.35 18.300371107249603 19.14386296930066 18.802091555939946 -1 0 1
893 298 2 -0.35 11.159903951861976 0.9618178705083855 27.592072261538444 6 0 0
892 298 1 0.7 12.164877120258009 0.3905906550845253 27.91090526204109 6 0 0
6524 2175 2 -0.35 2.3386416441381845 1.9821801950957008 38.148830561019814 4 2 0
6525 2175 2 -0.35 0.891347345640247 0.2037498336224611 38.558060018220175 4 2 0
6523 2175 1 0.7 1.5768975130275882 1.1312422624992973 38.327504396774714 4 2 0
5514 1838 2 -0.35 14.68954822271921 18.42520680551114 47.19834172798228 -2 2 0
5512 1838 1 0.7 15.108923132137411 18.434088231975647 48.26929501603964 -2 2 0
5513 1838 2 -0.35 15.432245573940184 18.4865449941193 49.37193821426357 -2 2 0
5847 1949 2 -0.35 1.2019146355599444 0.3035642616037138 62.52586309260782 -1 1 0
5845 1949 1 0.7 2.2837035666818957 0.49092305424887694 62.873365056064344 -1 1 0
5400 1800 2 -0.35 13.857061937249636 15.47303149032275 62.699307868067535 0 0 -1
5398 1800 1 0.7 14.051658159493723 16.48491958945725 62.16713641002447 0 0 -1
5399 1800 2 -0.35 14.158146640562668 17.55528455643611 61.719014694234204 0 0 -1
2051 684 2 -0.35 2.31068485349077 0.49759994781967487 65.79366576342741 -2 2 0
2050 684 1 0.7 3.2418047435017106 0.5049832275043079 66.50585935500317 -2 2 0
2052 684 2 -0.35 4.228910571255364 0.5414648857509011 67.1967646212884 -2 2 0
1070 357 2 -0.35 8.215938851777858 7.682481951039288 72.0925189409995 -2 1 0
5846 1949 2 -0.35 3.384367483036291 0.630611335368535 63.26877084576751 -1 1 0
4616 1539 2 -0.35 13.778446390136185 0.8845041249229113 66.74248810647322 5 9 1
4615 1539 1 0.7 14.108176044644168 1.5731022578439202 67.62340923883549 5 9 1
4617 1539 2 -0.35 14.503609344997763 2.254615323595163 68.46575324079744 5 9 1
913 305 1 0.7 16.583881415560068 6.012157124947732 70.49481552022068 -2 -1 0
914 305 2 -0.35 16.786671763861747 5.632777364397864 71.5707995472409 -2 -1 0
915 305 2 -0.35 16.398453445617214 6.416579277646197 69.43897493385602 -2 -1 0
1622 541 2 -0.35 5.152118201332034 13.135850228799208 70.1789616411062 -3 1 1
6116 2039 2 -0.35 6.674168746739056 13.431131902530119 67.4741732037051 -5 0 0
6115 2039 1 0.7 6.979083487216253 14.540622877364884 67.43630028257772 -5 0 0
6117 2039 2 -0.35 7.253803770003257 15.659168236004035 67.36386932229088 -5 0 0
1621 541 1 0.7 5.096441342470081 11.979309667995752 70.08683857793596 -3 1 1
1480 494 1 0.7 7.772371893194766 19.710900757355443 68.44733754216062 0 -4 1
1623 541 2 -0.35 4.999558866967038 10.834041978418405 70.00409778676232 -3 1 1
6711 2237 2 -0.35 9.554120121029895 12.567574263236665 67.32626773838109 1 0 0
287 96 2 -0.35 9.739125236916824 14.934416780249851 69.20109435309838 -8 -10 0
3021 1007 2 -0.35 2.8601956870705654 18.858646723314678 71.72890232712606 5 4 1
1960 654 1 0.7 6.913718923629859 18.35887848627261 71.95720802770127 -2 4 0
1481 494 2 -0.35 8.673409260682257 19.238126095573456 67.89377485910887 0 -4 1
1961 654 2 -0.35 7.909538048695515 18.872316470220227 71.6462887713947 -2 4 0
6710 2237 2 -0.35 11.242870233337358 10.936916732658057 67.41406192415278 1 0 0
6709 2237 1 0.7 10.429723883027716 11.773215734941347 67.32275283130205 1 0 0
4182 1394 2 -0.35 13.526433759519543 13.933802541464516 69.48491013857021 -2 0 0
4180 1394 1 0.7 14.474952048418457 14.330221645765409 68.92379958816177 -2 0 0
286 96 1 0.7 10.533768884038036 14.973851881750866 68.34590212413185 -8 -10 0
288 96 2 -0.35 11.313932055502665 15.073892401312532 67.4587705257389 -8 -10 0
6262 2088 1 0.7 13.832076289280902 18.30629320795505 69.35242215032721 -8 -2 1
6263 2088 2 -0.35 12.704577719881557 17.98374239437089 69.39538926539213 -8 -2 1
6264 2088 2 -0.35 14.975081670295339 18.53334812850509 69.29065530127846 -8 -2 1
304 102 1 0.7 19.25872164098192 14.389304085454595 68.5678492491524 -4 0 0
305 102 2 -0.35 19.770639651456744 14.888556741041171 69.49296966475409 -4 0 0
4385 1462 2 -0.35 17.67106113808822 19.867429890679094 69.32043131459703 2 -1 0
4181 1394 2 -0.35 15.326784444240777 14.82138937653203 68.30010944248835 -2 0 0
5853 1951 2 -0.35 17.709146001166296 19.098391570592725 65.83174505853621 -1 1 0
5851 1951 1 0.7 16.766089007374234 18.50443208164867 66.08224311262133 -1 1 0
5852 1951 2 -0.35 15.779229676817394 17.97411538552187 66.34462510438136 -1 1 0
306 102 2 -0.35 18.692562652245037 13.987789000375038 67.6313473385718 -4 0 0
6842 2281 2 -0.35 19.217690279930796 17.330142902916357 71.76411258659348 4 -2 1
1745 582 2 -0.35 5.218547841045117 0.09616724338922113 78.76463711462283 -1 -1 1
1069 357 1 0.7 7.475791488315746 6.782250054573577 72.17395237816643 -2 1 0
1071 357 2 -0.35 6.713026014706993 5.922180731219361 72.30536248436836 -2 1 0
1140 380 2 -0.35 5.157632861693812 2.9564292354769495 72.75364703756887 -4 1 0
3721 1241 1 0.7 0.9653925885108793 1.6663430490698108 78.50627195323227 2 3 0
1139 380 2 -0.35 5.816107431678468 3.6513707475781336 74.91925442940743 -4 1 0
1138 380 1 0.7 5.516616862488501 3.320605249204693 73.82613340335526 -4 1 0
34 12 1 0.7 5.737697674731014 4.163303541194868 77.76334525763855 1 0 0
3790 1264 1 0.7 4.8505105745439785 8.151808320819034 74.50097989138904 4 8 0
3791 1264 2 -0.35 4.519151607374278 9.211370476873073 74.1845623678514 4 8 0
36 12 2 -0.35 6.053047228120935 3.0940374624226252 78.07040600927057 1 0 0
3792 1264 2 -0.35 5.3288422242376345 7.190180632275399 74.90645236142467 4 8 0
2126 709 2 -0.35 6.281798203174556 7.514968437378174 79.48483853992097 -1 0 0
2125 709 1 0.7 5.559556030128409 8.21172423701469 78.89801089320909 -1 0 0
2127 709 2 -0.35 4.847068213987234 8.927030356857482 78.3148544785189 -1 0 0
35 12 2 -0.35 5.310479271370115 5.20756662565979 77.43666129746589 1 0 0
4872 1624 2 -0.35 2.838643452801224 1.881451773279774 74.6360399067549 2 0 0
4870 1624 1 0.7 2.331226548950766 0.8939257059991401 74.99625529785934 2 0 0
3723 1241 2 -0.35 1.971732047448579 1.254106510532721 78.09862913838403 2 3 0
2916 972 2 -0.35 8.878307292607461 1.2983092747390854 80.29189537016552 3 1 1
2914 972 1 0.7 9.266294577913257 2.1216251023234274 81.0080036671957 3 1 1
1020 340 2 -0.35 1.3716260415157042 6.362444239207317 79.75462172517392 -2 3 0
3807 1269 2 -0.35 2.242339829814684 4.12425954909465 77.31901952941018 -1 1 0
1018 340 1 0.7 2.36397089220715 5.797474493423497 79.86532548195257 -2 3 0
1019 340 2 -0.35 3.3661144540517562 5.239094096230628 80.04951804959872 -2 3 0
3939 1313 2 -0.35 9.278939259284233 3.1318249540446015 74.7998530330529 -2 4 1
3937 1313 1 0.7 9.390853980113686 4.250587332393408 74.55177744141906 -2 4 1
3806 1269 2 -0.35 2.6130894628935635 4.7532239563701255 75.13628706204395 -1 1 0
3805 1269 1 0.7 2.485224111606415 4.441698406753671 76.23292029973308 -1 1 0
30 10 2 -0.35 2.2706488507821057 8.27955981766667 77.17048967156461 0 2 0
3938 1313 2 -0.35 9.597441614463126 5.382766840853822 74.43488409299526 -2 4 1
6341 2114 2 -0.35 7.696603101542328 8.722232808852322 75.0359937265282 1 0 0
2679 893 2 -0.35 8.128000205841186 5.533059743365944 77.47007656527761 2 1 0
2677 893 1 0.7 8.688383100185547 6.539145594631863 77.57726781535155 2 1 0
2678 893 2 -0.35 9.333898395546434 7.474223957987375 77.78781641003289 2 1 0
1744 582 1 0.7 5.302415645730072 0.7652013639855525 79.71092321370382 -1 -1 1
1746 582 2 -0.35 5.227199429405318 1.342824265583684 80.71544196896949 -1 -1 1
6340 2114 1 0.7 8.270401748339907 9.617421365875376 74.5346110343592 1 0 0
28 10 1 0.7 1.468775661416215 8.968788679243575 77.66214633988147 0 2 0
29 10 2 -0.35 0.5947062837992332 9.578357534963754 78.15951041539975 0 2 0
4699 1567 1 0.7 0.9575339823587958 9.06391790546528 80.89428466389046 -1 -1 0
4700 1567 2 -0.35 2.109230883066926 9.024576579040613 80.72950575558575 -1 -1 0
1754 585 2 -0.35 14.138565152968017 2.5734727734791587 73.64701105231062 -4 1 0
2613 871 2 -0.35 16.206435944410565 0.9084085039443351 75.14741374672397 -3 4 1
2992 998 1 0.7 18.090239118487972 9.232096797980669 79.9337137207776 -1 1 0
1753 585 1 0.7 13.047526670114507 3.0058203025658807 73.71264945625089 -4 1 0
4442 1481 2 -0.35 12.018158078953949 1.1694353451026396 76.38924671027294 0 -1 0
1755 585 2 -0.35 11.952356257729404 3.3523613574459272 73.84424425008498 -4 1 0
4443 1481 2 -0.35 11.488568596399428 2.6953078046272427 78.05616786770786 0 -1 0
4307 1436 2 -0.35 18.02654646406395 8.7859232084007 75.89795689464665 -3 -4 1
4306 1436 1 0.7 17.242600167346694 8.000051025273827 76.26012765812875 -3 -4 1
4308 1436 2 -0.35 16.36083220967838 7.332291938702788 76.62751107354998 -3 -4 1
1928 643 2 -0.35 17.255894254048574 3.0405615682608116 72.92249822394841 2 1 0
1927 643 1 0.7 17.029045646344084 3.796307905937461 73.76069017528745 2 1 0
1929 643 2 -0.35 16.68372351057637 4.558660743621177 74.57777967625121 2 1 0
3141 1047 2 -0.35 12.533752060021854 7.783258365751346 72.84425567786666 1 1 0
6304 2102 1 0.7 17.225018260474535 4.853749411860864 79.98410118464844 -3 1 0
5356 1786 1 0.7 13.782424026622559 2.2362082905513576 79.89381697626402 -5 -5 0
2398 800 1 0.7 14.06082109533518 4.693414532282981 77.05038769582654 0 0 0
1645 549 1 0.7 14.1309564065449 8.014955300066653 79.40629715688438 1 -1 0
1646 549 2 -0.35 13.439139591140226 7.106421908759161 79.57607723372382 1 -1 0
1647 549 2 -0.35 14.915063854613653 8.871258405508936 79.31647256847882 1 -1 0
4441 1481 1 0.7 11.731382502542429 1.89268979958191 77.24792590928145 0 -1 0
3140 1047 2 -0.35 13.158492066188801 5.580132725225707 72.44423133174499 1 1 0
2400 800 2 -0.35 14.753391033427743 4.68162925021892 77.98629543580158 0 0 0
3139 1047 1 0.7 12.846498011444655 6.668270532841223 72.6426895255179 1 1 0
5357 1786 2 -0.35 13.860257765547948 1.349773358755206 79.07805173361326 -5 -5 0
5358 1786 2 -0.35 13.658768910265453 3.118051056899269 80.66913154735 -5 -5 0
511 171 1 0.7 18.59934055147443 4.5933542921809005 77.12952411829568 -2 0 0
513 171 2 -0.35 18.69878358085796 3.5955964875476196 76.58265178945855 -2 0 0
512 171 2 -0.35 18.458791121383772 5.6754064131008715 77.5788552179604 -2 0 0
6305 2102 2 -0.35 17.42710953536404 3.8123896088301694 79.55161864042664 -3 1 0
6306 2102 2 -0.35 17.109298434018786 5.932278131238167 80.44724895308585 -3 1 0
2399 800 2 -0.35 13.295840328844523 4.652177997493494 76.16329594957405 0 0 0
4415 1472 2 -0.35 11.415450383929588 9.340979502491427 75.6881233655656 -3 1 0
4416 1472 2 -0.35 12.729470325756385 7.6336118139676055 76.59498554433779 -3 1 0
4414 1472 1 0.7 12.077185102326506 8.48170210427185 76.11787879802257 -3 1 0
3754 1252 1 0.7 19.815746797053137 0.2775531773513797 77.93038825601435 1 1 0
5453 1818 2 -0.35 10.55063488044776 5.329850796951238 80.60322998001834 -1 0 0
5452 1818 1 0.7 10.683573458761932 6.392205374653903 81.05316955047068 -1 0 0
2994 998 2 -0.35 18.156710350359514 9.103198338711309 78.77803479002505 -1 1 0
129 43 2 -0.35 18.00472918296077 0.07428484984866755 80.55638711376496 1 2 0
3894 1298 2 -0.35 11.912083368607998 9.821887431656991 79.09917237332209 1 1 0
2993 998 2 -0.35 18.0218588926359 9.398118458101486 81.10668186802141 -1 1 0
3222 1074 2 -0.35 20.210456511552835 5.341667949099772 74.64735381135293 -1 5 1
127 43 1 0.7 16.98885510301501 0.45482607821713816 80.97440784444447 1 2 0
2611 871 1 0.7 16.03827402374452 0.05613411192896933 75.89022430748064 -3 4 1
3711 1237 2 -0.35 1.7555037757810505 14.592100829422199 79.56028351733643 -3 0 0
3709 1237 1 0.7 1.4344939568797541 14.86771325145179 78.47631416929757 -3 0 0
116 39 2 -0.35 6.25363466840405 14.030254359626678 73.11237132029686 -4 2 0
1962 654 2 -0.35 5.863849141266101 17.911738123851528 72.17643814272341 -2 4 0
4532 1511 2 -0.35 2.8421794471089408 11.491422958890334 72.4329783072403 -1 -1 0
117 39 2 -0.35 8.098824692765309 15.359337991481851 72.5652031049407 -4 2 0
4531 1511 1 0.7 2.8170776251489915 11.510381334289546 73.56837531618514 -1 -1 0
4533 1511 2 -0.35 2.7259004702991625 11.57884703832006 74.71851572148525 -1 -1 0
227 76 2 -0.35 1.206369214639533 14.080489087567997 73.63075920959966 -6 1 0
226 76 1 0.7 1.3749002610564345 15.212341213407894 73.85370684988602 -6 1 0
3263 1088 2 -0.35 7.042846540679676 11.065198535581688 78.0412444748721 -1 0 0
4406 1469 2 -0.35 6.812665912110044 15.837907283935053 75.40267291825987 0 -2 1
4405 1469 1 0.7 7.044769489526405 15.575090208064442 76.48705480933593 0 -2 1
3616 1206 1 0.7 3.985341990278174 12.70725646871437 78.09701364462124 0 0 0
4407 1469 2 -0.35 7.2741182102996955 15.34067543963153 77.58308777237094 0 -2 1
3617 1206 2 -0.35 3.1078762158885946 11.934795376536112 78.11167347677699 0 0 0
975 325 2 -0.35 3.2960014177506314 17.460377693867237 78.79502379123576 1 0 0
973 325 1 0.7 3.8367274307873656 16.990973879222558 77.87124941811835 1 0 0
974 325 2 -0.35 4.36613002688957 16.5961554581624 76.93466582023699 1 0 0
3262 1088 1 0.7 6.58848431279901 11.471197720237157 77.03884403076754 -1 0 0
3347 1116 2 -0.35 7.083120222276258 18.221180202813496 79.27346510966775 0 0 0
3346 1116 1 0.7 7.938612147119898 18.5111347450928 80.05280789466306 0 0 0
3264 1088 2 -0.35 6.096692606824345 11.768661843893927 76.04416261929316 -1 0 0
386 129 2 -0.35 9.499680012117736 13.039927286016155 79.48655135560816 0 0 0
385 129 1 0.7 9.4534147890835 14.168320551212968 79.66611807263932 0 0 0
3618 1206 2 -0.35 4.900696760309874 13.389173081636791 78.19931371003366 0 0 0
3019 1007 1 0.7 3.0516799275808837 18.557772467153338 72.84685376878988 5 4 1
115 39 1 0.7 7.189043577106639 14.7352055261306 72.86847703209496 -4 2 0
387 129 2 -0.35 9.453193988738164 15.288817938401372 79.87352867851304 0 0 0
3020 1007 2 -0.35 3.2321055505415086 18.347347583903527 73.97721077605489 5 4 1
4934 1645 2 -0.35 8.865329868717026 13.443525274978263 75.56449925998088 -1 -3 0
6162 2054 2 -0.35 4.686637541004151 19.784690590340887 77.10058419471298 -7 2 0
6161 2054 2 -0.35 6.094779281366282 19.08771952941695 75.37366852853148 -7 2 0
6160 2054 1 0.7 5.385585373124001 19.482026521988665 76.20897946502865 -7 2 0
643 215 1 0.7 0.8309067797815408 19.804708183056622 79.88052287543877 -1 -2 0
1242 414 2 -0.35 9.759665069850161 18.47933468782717 76.92922512330617 -3 -1 0
6342 2114 2 -0.35 8.716665492041304 10.566209282445636 74.04411231548116 1 0 0
1241 414 2 -0.35 9.737486825032736 16.415270776385146 75.81063668584994 -3 -1 0
1240 414 1 0.7 9.734635670117399 17.462918749567198 76.34004441508478 -3 -1 0
4933 1645 1 0.7 9.814729445527952 13.04906287784511 76.0880308262598 -1 -3 0
228 76 2 -0.35 1.394506460429533 16.362924759043228 74.0128882900586 -6 1 0
3348 1116 2 -0.35 8.832179947360505 18.802442696289347 80.7621081326153 0 0 0
6143 2048 2 -0.35 3.8044541565637435 12.36941039250615 81.02467839981429 1 0 0
4259 1420 2 -0.35 1.386336000863687 19.976719425953462 76.63094979401009 0 0 0
4731 1577 2 -0.35 7.060591627627295 13.48569776257616 80.83772431003808 1 3 1
4729 1577 1 0.7 6.448931332228942 14.448469598729623 81.05966102691251 1 3 1
3710 1237 2 -0.35 0.9847962866569493 15.299240251210831 77.4646552211403 -3 0 0
5591 1864 2 -0.35 11.63266620882413 13.99643381803159 73.85280856392487 -1 -1 0
1200 400 2 -0.35 14.472609267655052 18.254548828885362 72.2376748959477 -2 -3 0
6843 2281 2 -0.35 17.04422652295044 17.503841335153005 72.47974709770293 4 -2 1
2838 946 2 -0.35 20.058623136759106 16.693333724554545 74.4537262158438 0 0 0
3646 1216 1 0.7 18.27350025378608 18.32837278438943 79.71234179167436 -3 1 1
3892 1298 1 0.7 11.646365367333864 10.508816062490919 79.98766540341332 1 1 0
5592 1864 2 -0.35 12.150008184823712 15.924794544378972 72.62504970609334 -1 -1 0
5590 1864 1 0.7 11.910011255222505 14.946235677957109 73.23594752202624 -1 -1 0
252 84 2 -0.35 13.973115688314056 13.886905026620697 75.8356614085367 -5 0 0
4209 1403 2 -0.35 16.120167355069157 12.728099829973878 77.96900600524914 -2 1 0
4208 1403 2 -0.35 17.50864929864416 12.056223242373097 79.71165367312003 -2 1 0
4207 1403 1 0.7 16.804044477170585 12.402220240343178 78.85643979715694 -2 1 0
1199 400 2 -0.35 14.720784464299436 18.577663963911412 74.49564436307361 -2 -3 0
1198 400 1 0.7 14.59239629336169 18.39386331752672 73.37000818608493 -2 -3 0
251 84 2 -0.35 14.528680034071204 11.720624898020624 75.20877440417517 -5 0 0
250 84 1 0.7 14.264723601550333 12.817381127427867 75.55074554516371 -5 0 0
4935 1645 2 -0.35 10.751194429228564 12.659094790339404 76.65951551753854 -1 -3 0
5508 1836 2 -0.35 16.766970211132403 15.18267220214091 74.81509714722472 0 4 0
5506 1836 1 0.7 16.6181442553591 15.663071175665317 75.85822988290673 0 4 0
4502 1501 2 -0.35 13.446043605216078 15.025047236541758 78.58751594902714 -1 -1 0
585 195 2 -0.35 12.14989190713726 17.744832227064926 79.76339458756938 -1 -1 0
583 195 1 0.7 12.905956599895028 17.44034182457319 80.55660816500641 -1 -1 0
4503 1501 2 -0.35 13.156001244880077 12.732527709851515 78.77011641509014 -1 -1 0
4501 1501 1 0.7 13.295618243612445 13.869186152394093 78.65967844119768 -1 -1 0
5507 1836 2 -0.35 16.372120229543846 16.129699736286806 76.90050859179829 0 4 0
6841 2281 1 0.7 18.11873428181901 17.379456600521806 72.12448768517542 4 -2 1
1127 376 2 -0.35 15.206168434052936 14.133506644518015 80.83223187461307 -1 0 0
841 281 1 0.7 17.765283410186374 19.172790870358952 75.93308473873564 -1 0 0
3647 1216 2 -0.35 17.191392261858187 17.93841387787009 79.94550426113882 -3 1 1
842 281 2 -0.35 18.124103228642696 19.044245737338073 74.8408036097226 -1 0 0
843 281 2 -0.35 17.443172199568284 19.303969935843128 77.02396893857095 -1 0 0
6125 2042 2 -0.35 19.51375811050983 12.305095216243025 77.11995336489079 -2 0 0
2435 812 2 -0.35 19.591361889233955 14.482882700831432 80.77671710818039 -3 3 0
3648 1216 2 -0.35 19.336190928415977 18.770628441039264 79.50028464513332 -3 1 1
3893 1298 2 -0.35 11.348317658782625 11.178518044111046 80.85994826522946 1 1 0
2915 972 2 -0.35 9.535800956216384 2.8551972641764474 81.81801635676256 3 1 1
5406 1802 2 -0.35 2.3709191204540367 0.5259901464467447 82.77616932110294 -2 3 0
4404 1468 2 -0.35 2.0288652644325014 3.148946231274371 83.14951409331363 -1 1 0
4254 1418 2 -0.35 7.793237255180791 5.844977033052507 81.82822058141588 0 0 0
3787 1263 1 0.7 1.6689388216498182 6.228594223645018 84.45762576542651 0 -1 0
3789 1263 2 -0.35 2.3050900529903657 6.449314255942715 83.48911762139308 0 -1 0
620 207 2 -0.35 4.315494532651445 0.5421165236921172 86.66412524111347 9 5 1
4214 1405 2 -0.35 2.8947198243510783 8.005846714382049 86.56847473107509 0 0 0
3788 1263 2 -0.35 1.026747178820482 5.97896966747308 85.40868996145495 0 -1 0
4213 1405 1 0.7 3.2002367130475213 8.64226095275437 87.49439404959126 0 0 0
2273 758 2 -0.35 8.436560302125608 5.633020339330558 85.88007520624042 -1 0 0
4253 1418 2 -0.35 6.879337517033148 7.6747692549107605 82.92805473930714 0 0 0
2272 758 1 0.7 8.060622998305742 4.546604129726686 85.63642853194713 -1 0 0
2274 758 2 -0.35 7.607994924343719 3.5141143749214088 85.40531387699156 -1 0 0
4252 1418 1 0.7 7.297911230858571 6.706368330673652 82.40486029349297 0 0 0
6739 2247 1 0.7 4.177070102231394 4.19370131147426 88.01426225498348 -2 -16 1
6741 2247 2 -0.35 3.505733475660962 3.2327308773606136 87.99076883241065 -2 -16 1
4215 1405 2 -0.35 3.4569955910617773 9.233521593070934 88.47729473229585 0 0 0
621 207 2 -0.35 5.820207112375384 0.11890056215011346 88.37525255533669 9 5 1
619 207 1 0.7 5.064080332828759 0.29371987585499887 87.50947075482289 9 5 1
338 113 2 -0.35 7.413390731542121 9.606595801263298 87.15538991604318 1 3 0
4403 1468 2 -0.35 3.526855267961376 3.349045264227884 84.89402689958122 -1 1 0
4402 1468 1 0.7 2.77604897133431 3.2319041073580896 84.00590953025777 -1 1 0
2537 846 2 -0.35 0.21470323309239908 6.235462900521824 88.23283756092604 -3 0 0
4409 1470 2 -0.35 9.625237987922088 10.01597029539935 83.22914184499001 2 2 0
2100 700 2 -0.35 0.9359038448189706 0.40147688501510714 87.73801693260945 -2 0 0
6740 2247 2 -0.35 4.878239090844909 5.098716009783529 88.05923273383218 -2 -16 1
2098 700 1 0.7 0.8998850546118804 0.5123161326802332 86.58558924223041 -2 0 0
2099 700 2 -0.35 0.904598774034958 0.7104585423198386 85.44258843752826 -2 0 0
978 326 2 -0.35 9.423627526811698 9.776414546678952 89.70599610447503 -1 1 0
5268 1756 2 -0.35 7.168024663093302 0.2642310640865375 83.47669869635357 2 3 0
501 167 2 -0.35 8.834264729085016 0.7547609360390399 87.41194457643931 -2 1 0
561 187 2 -0.35 17.799941257169664 9.583706492805945 89.29564569220878 17 2 1
344 115 2 -0.35 20.110066134793854 5.533700187414004 85.58797205456302 -1 -1 0
4665 1555 2 -0.35 19.531118164749127 2.362457426961951 89.82418751920177 0 0 0
128 43 2 -0.35 15.930906610033462 0.8020356947396012 81.30778554338957 1 2 0
6396 2132 2 -0.35 12.452489934104316 1.8835169684453956 89.31789465196326 3 -1 1
2262 754 2 -0.35 13.131603881645864 9.959791021117761 89.06765930952861 -2 2 0
5261 1754 2 -0.35 12.08070753159803 0.3763055622236716 82.39061525297376 -3 1 0
343 115 1 0.7 19.31366050447945 5.852195715546612 86.37750420288455 -1 -1 0
1253 418 2 -0.35 10.187503060265877 6.69312417892556 88.40329062184227 -1 1 0
1252 418 1 0.7 10.287303547036974 5.593748635561479 88.0335942012703 -1 1 0
5454 1818 2 -0.35 10.841674721925713 7.45258475014131 81.51238194736813 -1 0 0
5203 1735 1 0.7 19.483758933968275 6.530505866383192 82.61568685416353 -3 1 1
1254 418 2 -0.35 10.397777268379508 4.482444344416203 87.72619120888909 -1 1 0
5997 1999 2 -0.35 16.452109635801794 3.9371392709195305 83.33678370240074 -4 1 1
4115 1372 2 -0.35 15.532779523289308 2.5711651227613634 87.71904268464692 3 4 1
345 115 2 -0.35 18.46058292643037 5.993026878011084 87.19546825457932 -1 -1 0
4664 1555 2 -0.35 18.190398570233913 4.25380445389613 89.84373645400161 0 0 0
3878 1293 2 -0.35 11.695200585392257 4.147749570778 84.24263007078014 -2 0 0
2260 754 1 0.7 13.581628413777146 9.708664569270812 88.01962955819536 -2 2 0
4114 1372 1 0.7 16.06429290374936 3.361155721275969 87.08860715958433 3 4 1
560 187 2 -0.35 19.296443896793743 9.004518740544189 87.62928053292767 17 2 1
5205 1735 2 -0.35 18.444015050911304 6.579855577705648 83.10528174399656 -3 1 1
3877 1293 1 0.7 12.587934192001708 3.447841182100555 84.55752632839574 -2 0 0
1025 342 2 -0.35 13.675070294188973 8.015243623123796 83.45562923035101 1 -6 1
1024 342 1 0.7 13.252950482948611 7.720198388858398 84.53051497796304 1 -6 1
5996 1999 2 -0.35 14.547397081172752 5.240944429034835 83.4101225081732 -4 1 1
5995 1999 1 0.7 15.512154327797827 4.614233141566622 83.41202103807062 -4 1 1
4116 1372 2 -0.35 16.62886785429918 4.0286066809084975 86.29640446130118 3 4 1
6281 2094 2 -0.35 15.905327743249291 7.118138646287472 85.72475456349085 1 1 0
1026 342 2 -0.35 12.740701630171849 7.5183634785156706 85.52877894709789 1 -6 1
2216 739 2 -0.35 14.297126880920938 5.765492282004105 87.79739935404416 -4 3 0
2215 739 1 0.7 14.960175130694262 6.483304046750009 88.4114230788264 -4 3 0
2217 739 2 -0.35 15.66870248991197 7.2424127498488176 88.91884193245843 -4 3 0
2535 845 2 -0.35 20.207281882589264 1.28232961323834 85.0166526981284 -1 0 0
2534 845 2 -0.35 19.748765883985136 2.8124452385447984 86.68769437128071 -1 0 0
2533 845 1 0.7 19.982154198460222 2.0183096696238874 85.88383021615405 -1 0 0
3879 1293 2 -0.35 13.411388949070613 2.710851631774682 84.88214921696118 -2 0 0
6280 2094 1 0.7 16.84673513884114 7.755529814824403 85.49276776857965 1 1 0
6282 2094 2 -0.35 17.83885326128391 8.322847130829308 85.3287302461243 1 1 0
4663 1555 1 0.7 18.8447679511453 3.2957194721576997 89.81000509968467 0 0 0
2261 754 2 -0.35 14.108933018774168 9.502979223274629 87.01517665633033 -2 2 0
2295 765 2 -0.35 17.64312463030968 0.44271591282172035 87.60971475604455 -1 0 0
5262 1754 2 -0.35 10.712690615551475 0.30455233660102227 84.25253139913937 -3 1 0
559 187 1 0.7 18.56168921870617 9.286567578747906 88.50576536891836 17 2 1
179 60 2 -0.35 15.9963359404716 9.863981864724776 83.83154810531389 -2 -2 0
5260 1754 1 0.7 11.448070086650635 0.3416519546145179 83.36840307594655 -3 1 0
6394 2132 1 0.7 13.414486190445746 2.15025513124955 89.84767731706732 3 -1 1
471 157 2 -0.35 0.2818652765203794 13.958599051753902 87.1956742528679 1 0 1
470 157 2 -0.35 0.5391174886890221 12.988661138177536 85.1064886889886 1 0 1
1008 336 2 -0.35 0.39456303046710417 17.742297591694953 85.13686192084138 -2 0 0
736 246 1 0.7 0.024573917290498105 12.513781661339207 81.27445674337024 -2 -1 0
737 246 2 -0.35 0.9043272517467813 11.757611547885325 81.44195722385008 -2 -1 0
1058 353 2 -0.35 1.2275523793003564 17.573245093082114 81.96010700737088 -2 -8 1
996 332 2 -0.35 6.516659602035823 10.425468200935935 81.58034858674402 -1 4 0
337 113 1 0.7 8.267594648772972 10.179056028216888 86.66541072339051 1 3 0
339 113 2 -0.35 9.244974718359789 10.652051545837294 86.26722881777147 1 3 0
469 157 1 0.7 0.417916037575814 13.437562275782911 86.16394357662695 1 0 1
6725 2242 2 -0.35 6.089393266724395 18.483574997620465 82.26636437523511 2 -1 0
1057 353 1 0.7 1.499682311550288 16.44730234256649 82.15081592626123 -2 -8 1
1059 353 2 -0.35 1.8440635226728086 15.388593806924561 82.52146081165236 -2 -8 1
994 332 1 0.7 6.682881734660574 10.641224298729806 82.71486730581522 -1 4 0
995 332 2 -0.35 6.846242537314993 10.905721643366553 83.85234045450649 -1 4 0
3973 1325 1 0.7 4.2526966203207754 14.516294532665398 89.64123262654674 1 -2 0
6142 2048 1 0.7 3.755284932122316 11.882869504084724 82.08515692426543 1 0 0
3975 1325 2 -0.35 5.201416738924513 15.05231381784714 90.05520180742928 1 -2 0
6144 2048 2 -0.35 3.577744342230447 11.40581687993903 83.12360019446335 1 0 0
4352 1451 2 -0.35 9.139148704125953 13.260494244051612 89.49178704533638 -1 -1 0
4353 1451 2 -0.35 7.5033934320004425 12.218121478918583 88.20747849770122 -1 -1 0
6309 2103 2 -0.35 8.071808872019426 17.565890938411272 84.37887244282673 0 1 0
5378 1793 2 -0.35 4.831584311424775 11.051152843978327 86.27148154311426 -1 0 0
5377 1793 1 0.7 4.889567569185703 12.101709245275101 85.78895851990598 -1 0 0
5379 1793 2 -0.35 4.931608725074109 13.141933010662255 85.26075920342701 -1 0 0
4730 1577 2 -0.35 5.8754683661920994 15.411746533576189 81.35032406142452 1 3 1
3098 1033 2 -0.35 1.9882520402260644 16.903917130084952 89.57591817111798 -1 1 0
4351 1451 1 0.7 8.278159969298967 12.830784565907337 88.83214401498167 -1 -1 0
4994 1665 2 -0.35 4.5997468109788855 17.306093605990462 87.83903780824716 1 0 0
4995 1665 2 -0.35 2.9623051580912225 18.305408585843132 86.53560293530016 1 0 0
4993 1665 1 0.7 3.8055632967007114 17.803355191232125 87.16886947851778 1 0 0
6726 2242 2 -0.35 3.9249078814959804 17.756101665425437 82.75093822761434 2 -1 0
6724 2242 1 0.7 5.024276980032435 18.079549543305493 82.52248830905184 2 -1 0
5681 1894 2 -0.35 9.57197567740458 13.33055882586038 84.78570924769198 -3 0 0
6308 2103 2 -0.35 6.132517508483716 18.43802794856462 85.28976609651832 0 1 0
6307 2103 1 0.7 7.140158711731597 18.016723986341677 84.89284830557133 0 1 0
5680 1894 1 0.7 8.595880732425758 13.902850014101716 84.78167867154775 -3 0 0
5682 1894 2 -0.35 7.582633913427019 14.411132046560631 84.64993834082729 -3 0 0
2488 830 1 0.7 9.2286829871807 16.981572207490213 87.85852597311477 7 3 0
3974 1325 2 -0.35 3.3121158600388623 14.044158451584899 89.15001013639976 1 -2 0
2489 830 2 -0.35 9.133190959303562 18.12546652279782 87.85918439804388 7 3 0
2490 830 2 -0.35 9.244892990452481 15.843922288455772 87.90624209981668 7 3 0
6275 2092 2 -0.35 20.11108369064909 14.686909066382531 84.2648630102426 -3 2 0
5706 1902 2 -0.35 20.1637146448343 16.84420293100667 88.57288420654046 1 2 0
1176 392 2 -0.35 11.669036557927377 18.740327862263946 83.27977446327328 -7 -1 1
180 60 2 -0.35 15.076526159532877 10.626063408825516 81.91185732616957 -2 -2 0
584 195 2 -0.35 13.745802364153644 17.096169628136803 81.28734870146174 -1 -1 0
4408 1470 1 0.7 10.654213594538543 10.130045757958952 83.7886772923802 2 2 0
4410 1470 2 -0.35 11.667025575168042 10.289351527268106 84.34318699448217 2 2 0
4763 1588 2 -0.35 10.982355924562253 15.273877213185184 83.06857217269646 -3 1 0
415 139 1 0.7 17.39159064834687 17.496994417364377 83.29468611972915 0 0 0
5829 1943 2 -0.35 11.495347628341877 19.20991961783613 89.71353918902751 0 -1 0
417 139 2 -0.35 16.52123051031265 18.26523755302631 83.34815814913074 0 0 0
49 17 1 0.7 16.643197228674495 19.083031938736603 86.44872771911136 0 0 0
1126 376 1 0.7 14.97166426507726 14.385750854628848 81.93195130106668 -1 0 0
178 60 1 0.7 15.503899723776724 10.258108913442985 82.90425624921029 -2 -2 0
6871 2291 1 0.7 14.718370615323 12.543640799033316 85.5342652112039 -1 5 1
772 258 1 0.7 12.325839145869196 13.475252703217473 87.63954517395244 0 1 0
2227 743 1 0.7 13.670523004225357 16.62669499391441 89.1173985337653 -1 1 0
773 258 2 -0.35 11.877923291621675 14.010176357425731 86.71272332074119 0 1 0
6873 2291 2 -0.35 15.087527135989305 13.133261965291972 86.46469049342417 -1 5 1
4764 1588 2 -0.35 12.34092435349834 14.288904407715162 81.42866056005327 -3 1 0
2358 786 2 -0.35 17.701875442651446 11.187526266020198 85.77559340105668 -3 2 0
50 17 2 -0.35 15.793070860524432 18.8824452038575 87.21982272693535 0 0 0
1128 376 2 -0.35 14.67783625157369 14.617708337504842 83.03575406609433 -1 0 0
5256 1752 2 -0.35 15.920556263286459 13.994318243281164 89.96757802241706 -2 2 0
2842 948 1 0.7 17.498752477710124 15.012869961256657 86.55880876380687 0 1 0