LAMMPS (29 Aug 2024 - Update 1)
  using 1 OpenMP thread(s) per MPI task
using multi-threaded neighbor list subroutines
Created orthogonal box = (0 0 0) to (40 40 240)
  2 by 2 by 5 MPI processor grid
Read molecule template co2mol:
# CO2 molecule file. TraPPE-Flex model.
  1 molecules
  0 fragments
  3 atoms with max type 2
  2 bonds with max type 1
  1 angles with max type 1
  0 dihedrals with max type 0
  0 impropers with max type 0
Molecule file loaded successfully
Created 6894 atoms
  using lattice units in orthogonal box = (0 0 0) to (40 40 240)
  create_atoms CPU = 0.299 seconds
Created 78 atoms
  using lattice units in orthogonal box = (0 0 0) to (40 40 240)
  create_atoms CPU = 0.005 seconds
Created 78 atoms
  using lattice units in orthogonal box = (0 0 0) to (40 40 240)
  create_atoms CPU = 0.005 seconds
Setting atom values ...
  2350 settings made for charge
Setting atom values ...
  4700 settings made for charge
lz=240
2350 atoms in group car
4700 atoms in group oxy
Balancing ...
PPPM initialization ...
  using 12-bit tables for long-range coulomb (src/kspace.cpp:342)
  G vector (1/distance) = 0.20169663
  grid = 24 24 80
  stencil order = 5
  estimated absolute RMS force accuracy = 0.00286774
  estimated relative force accuracy = 8.6361139e-06
  using single precision FFTW3
  3d grid and FFT values/proc = 7942 2304
Generated 1 of 1 mixed pair_coeff terms from arithmetic mixing rule
Last active /omp style is kspace_style pppm/omp
Neighbor list info ...
  update: every = 1 steps, delay = 0 steps, check = yes
  max neighbors/atom: 2000, page size: 100000
  master list distance cutoff = 17
  ghost atom cutoff = 17
  binsize = 8.5, bins = 5 5 29
  1 neighbor lists, perpetual/occasional/extra = 1 0 0
  (1) pair lj/cut/coul/long/omp, perpetual
      attributes: half, newton on, omp
      pair build: half/bin/newton/omp
      stencil: half/bin/3d
      bin: standard
 rebalancing time: 0.015 seconds
  iteration count = 12
  initial/final maximal load/proc = 939 414
  initial/final imbalance factor  = 2.6638298 1.1744681
  x cuts: 0 0.46875 1
  y cuts: 0 0.46875 1
  z cuts: 0 0.3875 0.4625 0.5375 0.6125 1
PPPM initialization ...
  using 12-bit tables for long-range coulomb (src/kspace.cpp:342)
  G vector (1/distance) = 0.20169663
  grid = 24 24 80
  stencil order = 5
  estimated absolute RMS force accuracy = 0.00286774
  estimated relative force accuracy = 8.6361139e-06
  using single precision FFTW3
  3d grid and FFT values/proc = 14800 5239
Generated 1 of 1 mixed pair_coeff terms from arithmetic mixing rule
Last active /omp style is kspace_style pppm/omp
Setting up cg style minimization ...
  Unit style    : real
  Current step  : 0
Per MPI rank memory allocation (min/avg/max) = 9.124 | 9.416 | 9.722 Mbytes
   Step          Temp          E_pair         E_mol          TotEng         Press     
         0   0              49336.872      7.9026918e-12  49336.872      43177.231    
      3197   0             -11904.725      21.745895     -11882.979     -311.21796    
Loop time of 39.1372 on 20 procs for 3197 steps with 7050 atoms

99.4% CPU use with 20 MPI tasks x 1 OpenMP threads

Minimization stats:
  Stopping criterion = energy tolerance
  Energy initial, next-to-last, final = 
      49336.8715504502  -11882.9694138032  -11882.9791294924
  Force two-norm initial, final = 12256.268 6.68388
  Force max component initial, final = 805.65186 1.3886488
  Final line search alpha, max atom move = 0.021762544 0.03022053
  Iterations, force evaluations = 3197 6314

MPI task timing breakdown:
Section |  min time  |  avg time  |  max time  |%varavg| %total
---------------------------------------------------------------
Pair    | 11.084     | 24.06      | 33.201     | 126.1 | 61.48
Bond    | 0.065532   | 0.079636   | 0.093693   |   2.6 |  0.20
Kspace  | 4.3098     | 13.462     | 26.467     | 169.1 | 34.40
Neigh   | 0.21087    | 0.2119     | 0.21344    |   0.2 |  0.54
Comm    | 0.84858    | 1.0212     | 1.1507     |   9.8 |  2.61
Output  | 0          | 0          | 0          |   0.0 |  0.00
Modify  | 0.02943    | 0.044531   | 0.071402   |   5.0 |  0.11
Other   |            | 0.2576     |            |       |  0.66

Nlocal:          352.5 ave         496 max         221 min
Histogram: 2 5 1 0 1 2 2 4 2 1
Nghost:        6385.95 ave        9017 max        4313 min
Histogram: 6 2 0 0 2 2 3 2 2 1
Neighs:         189671 ave      299712 max       53055 min
Histogram: 4 0 0 3 1 1 2 3 5 1

Total # of neighbors = 3793413
Ave neighs/atom = 538.07277
Ave special neighs/atom = 2
Neighbor list builds = 33
Dangerous builds = 0
System init for write_data ...
PPPM initialization ...
  using 12-bit tables for long-range coulomb (src/kspace.cpp:342)
  G vector (1/distance) = 0.20169663
  grid = 24 24 80
  stencil order = 5
  estimated absolute RMS force accuracy = 0.00286774
  estimated relative force accuracy = 8.6361139e-06
  using single precision FFTW3
  3d grid and FFT values/proc = 14800 5239
Generated 1 of 1 mixed pair_coeff terms from arithmetic mixing rule
Last active /omp style is kspace_style pppm/omp
#Step Pxx Pyy Pzz
#Step temp press ke pe etotal ecouple econserve
#Step px py pz COM_vx COM_vy COM_vz
PPPM initialization ...
  using 12-bit tables for long-range coulomb (src/kspace.cpp:342)
  G vector (1/distance) = 0.20169663
  grid = 24 24 80
  stencil order = 5
  estimated absolute RMS force accuracy = 0.00286774
  estimated relative force accuracy = 8.6361139e-06
  using single precision FFTW3
  3d grid and FFT values/proc = 14800 5239
Generated 1 of 1 mixed pair_coeff terms from arithmetic mixing rule
Last active /omp style is kspace_style pppm/omp
Setting up Verlet run ...
  Unit style    : real
  Current step  : 0
  Time step     : 0.5
Per MPI rank memory allocation (min/avg/max) = 8.506 | 8.898 | 9.249 Mbytes
   Step         TotEng         Press           Temp            Dt      
         0  -7260.3985      239.06507      220            0.5          
      1000  -3195.5633      1299.9495      221.03288      0.5          
      2000  -2637.272       1407.8638      197.89604      0.5          
      3000  -2218.5409     -83.096595      209.69196      0.5          
      4000  -2124.4098      160.40349      223.92347      0.5          
      5000  -2054.0683     -73.075557      222.80052      0.5          
      6000  -1746.5484     -15.317437      215.54998      0.5          
      7000  -1621.9475     -76.227772      212.11861      0.5          
      8000  -1418.7663     -247.02789      215.76629      0.5          
      9000  -1198.905      -141.93686      219.00916      0.5          
     10000  -1028.8254     -81.331354      219.79619      0.5          
     11000  -766.65825     -481.13704      216.6119       0.5          
     12000  -717.60575     -322.09593      216.09787      0.5          
     13000  -502.79407     -398.05126      223.39237      0.5          
     14000  -466.91492     -232.4012       221.12546      0.5          
     15000  -468.80732     -68.234388      221.35515      0.5          
     16000  -476.19004      78.893811      219.36952      0.5          
     17000  -433.93595     -189.93775      217.47953      0.5          
     18000  -474.4094      -313.69404      218.23278      0.5          
     19000  -500.31549     -281.23921      219.44498      0.5          
     20000  -515.11174     -96.785179      218.44803      0.5          
     21000  -596.76413      108.4313       217.82747      0.5          
     22000  -661.30989      28.007344      219.76736      0.5          
     23000  -723.42246     -181.56481      219.35889      0.5          
     24000  -735.26969     -178.70487      220.52675      0.5          
     25000  -739.02957     -105.91448      223.20914      0.5          
     26000  -726.40101      172.70266      219.14017      0.5          
     27000  -797.74675      147.21975      221.24235      0.5          
     28000  -819.17838      24.959142      220.16798      0.5          
     29000  -842.8169      -62.791632      219.20384      0.5          
     30000  -953.54174      187.80055      218.45538      0.5          
     31000  -800.58492     -3.7726991      220.95545      0.5          
     32000  -933.47537      127.47035      220.15597      0.5          
     33000  -935.85576     -116.25609      217.79256      0.5          
     34000  -750.55061     -384.46319      225.12072      0.5          
     35000  -850.58333     -119.95231      218.91393      0.5          
     36000  -945.79253     -141.62152      216.80803      0.5          
     37000  -921.73914     -179.13482      216.23357      0.5          
     38000  -755.33284      79.805177      222.20979      0.5          
     39000  -789.25482     -60.532114      220.879        0.5          
     40000  -862.81839     -170.64661      220.76871      0.5          
     41000  -819.00253      52.908893      220.77706      0.5          
     42000  -758.90308     -11.276828      223.81555      0.5          
     43000  -692.78862      290.63695      224.92428      0.5          
     44000  -827.40424      30.374712      218.13875      0.5          
     45000  -797.19013     -190.3091       221.68204      0.5          
     46000  -807.73722      80.748558      222.38907      0.5          
     47000  -807.48763      4.8222989      220.85017      0.5          
     48000  -830.36021     -279.89648      220.07465      0.5          
     49000  -826.42531     -141.68446      218.08565      0.5          
     50000  -772.66544     -121.40213      222.20914      0.5          
     51000  -958.51118     -127.77363      218.59563      0.5          
     52000  -939.36355      117.29059      217.21549      0.5          
     53000  -934.58466     -115.37721      215.40733      0.5          
     54000  -858.9962      -227.93344      222.50767      0.5          
     55000  -1046.4617      46.207822      215.46045      0.5          
     56000  -1000.283       46.942551      217.94466      0.5          
     57000  -910.61124     -239.12448      221.88047      0.5          
     58000  -953.98995      43.4449        220.11831      0.5          
     59000  -1061.9131     -195.65052      218.97103      0.5          
     60000  -1095.3941     -117.10908      215.6229       0.5          
     61000  -972.35847      106.18602      221.41698      0.5          
     62000  -1056.6068      120.50014      220.39099      0.5          
     63000  -1109.2122      114.24345      220.12335      0.5          
     64000  -931.83374      128.83545      223.80107      0.5          
     65000  -1009.1203     -10.477612      221.9971       0.5          
     66000  -1094.8805     -31.151613      219.03926      0.5          
     67000  -1167.2143      146.2037       217.42256      0.5          
     68000  -1167.3448     -310.95414      218.07867      0.5          
     69000  -1058.4279      84.750323      218.74196      0.5          
     70000  -1054.8211      470.64348      221.8944       0.5          
     71000  -1100.762      -61.957256      224.54406      0.5          
     72000  -1191.7749     -52.657447      216.36789      0.5          
     73000  -1211.9823      77.288144      219.80938      0.5          
     74000  -1095.8554      381.49304      222.36595      0.5          
     75000  -1247.9634      89.892005      216.33148      0.5          
     76000  -1301.7607      25.709644      218.82579      0.5          
     77000  -1353.398       18.341314      218.65418      0.5          
     78000  -1255.5787      310.86004      219.07889      0.5          
     79000  -1269.9189      258.50305      219.97083      0.5          
     80000  -1240.5727      117.44461      219.82128      0.5          
     81000  -1316.2489     -130.7495       217.33225      0.5          
     82000  -1236.7425      173.86201      221.65049      0.5          
     83000  -1270.3456      54.022265      219.93325      0.5          
     84000  -1203.071       156.25564      218.08315      0.5          
     85000  -1144.5465      232.86825      218.90256      0.5          
     86000  -1147.5768     -199.21327      216.76855      0.5          
     87000  -1052.5867     -201.3287       223.22951      0.5          
     88000  -1030.2199      262.73114      222.10693      0.5          
     89000  -1100.241      -170.44647      220.39211      0.5          
     90000  -1053.4089     -148.60374      220.11202      0.5          
     91000  -997.65855      290.83255      219.94806      0.5          
     92000  -904.71995     -39.867443      220.38252      0.5          
     93000  -964.40035     -96.56268       220.56093      0.5          
     94000  -943.12941     -190.41463      218.89184      0.5          
     95000  -965.72548     -127.99753      218.43845      0.5          
     96000  -924.92064     -42.054112      215.56845      0.5          
     97000  -832.16484      64.953942      220.67437      0.5          
     98000  -793.59713     -217.74176      222.0192       0.5          
     99000  -909.11402      45.770038      218.79779      0.5          
    100000  -881.14941     -6.723045       217.52235      0.5          
    101000  -844.56919     -138.8908       221.51102      0.5          
    102000  -902.43175     -37.465398      219.823        0.5          
    103000  -787.58915     -72.008341      221.57861      0.5          
    104000  -896.08289      121.26463      219.86578      0.5          
    105000  -948.05758      238.56622      217.89156      0.5          
    106000  -970.36073     -102.28332      219.93592      0.5          
    107000  -990.85272     -221.32056      218.63785      0.5          
    108000  -906.54692      279.59555      221.62474      0.5          
    109000  -1044.8879     -32.137293      218.7514       0.5          
    110000  -1001.1827     -221.62515      218.86619      0.5          
    111000  -1008.0439      91.430778      222.29195      0.5          
    112000  -1080.9607      170.83232      221.66709      0.5          
    113000  -1173.0838     -437.04368      217.11798      0.5          
    114000  -898.30551      9.8227836      225.00465      0.5          
    115000  -1019.3815      123.89205      216.72188      0.5          
    116000  -985.05045      202.84408      221.03194      0.5          
    117000  -948.0119      -26.752786      223.23064      0.5          
    118000  -1079.844      -188.47219      219.27529      0.5          
    119000  -1027.9813     -17.135822      220.18666      0.5          
    120000  -913.42918      32.829837      224.77189      0.5          
    121000  -1007.7342      60.84303       221.53447      0.5          
    122000  -1097.744       194.75482      217.74149      0.5          
    123000  -943.92749      170.4949       224.24052      0.5          
    124000  -1028.9654     -229.20176      218.10028      0.5          
    125000  -994.64577     -127.20231      218.6396       0.5          
    126000  -998.40236      14.987509      220.68854      0.5          
    127000  -1059.2258     -36.402689      218.51036      0.5          
    128000  -935.77129     -146.58247      220.85224      0.5          
    129000  -1006.2948     -131.92006      219.77354      0.5          
    130000  -826.0041       25.073212      223.58359      0.5          
    131000  -760.36731     -236.08849      224.38556      0.5          
    132000  -947.68218     -70.432697      217.99126      0.5          
    133000  -981.13529      173.72025      218.09332      0.5          
    134000  -1046.1735      9.473116       216.20049      0.5          
    135000  -973.27714     -123.91162      218.63597      0.5          
    136000  -814.81105      29.307488      222.1972       0.5          
    137000  -857.12336      351.82952      221.23828      0.5          
    138000  -922.26901     -110.24399      221.1181       0.5          
    139000  -840.57853     -421.28515      223.2516       0.5          
    140000  -746.24158      333.24092      223.4586       0.5          
    141000  -875.34867      284.03105      218.5163       0.5          
    142000  -874.86059     -127.66886      219.09112      0.5          
    143000  -866.58745      3.3860072      218.02783      0.5          
    144000  -800.32868      257.43195      221.41696      0.5          
    145000  -907.42936      112.16605      220.64118      0.5          
    146000  -880.09598      94.835549      219.75177      0.5          
    147000  -853.04404     -137.63903      220.03095      0.5          
    148000  -770.01395     -137.08758      224.14126      0.5          
    149000  -721.1324      -55.710218      225.1336       0.5          
    150000  -874.17714      109.97762      221.48366      0.5          
    151000  -765.80083      122.14699      225.03268      0.5          
    152000  -950.12704     -66.107455      219.58632      0.5          
    153000  -1045.3067      21.890407      214.3821       0.5          
    154000  -998.3964       115.72503      218.41089      0.5          
    155000  -1016.6938      81.675129      218.43069      0.5          
    156000  -1040.0829      91.480306      219.7857       0.5          
    157000  -1035.4889      110.61735      218.60362      0.5          
    158000  -907.94329      21.936782      221.64722      0.5          
    159000  -1015.2522     -127.06506      220.32578      0.5          
    160000  -1058.1097     -143.14098      218.3407       0.5          
    161000  -1006.123      -11.662169      220.02752      0.5          
    162000  -895.28813      1.1063108      224.95586      0.5          
    163000  -940.17708     -63.069738      219.9205       0.5          
    164000  -923.48863      151.53984      221.18534      0.5          
    165000  -904.13217     -153.30623      220.81723      0.5          
    166000  -912.08681     -301.06755      220.84865      0.5          
    167000  -1034.8367     -8.9577801      218.48009      0.5          
    168000  -967.20159      135.57736      219.39942      0.5          
    169000  -846.7829       206.83768      224.26293      0.5          
    170000  -919.88262     -64.589175      219.73371      0.5          
    171000  -886.56104     -191.11111      221.4462       0.5          
    172000  -907.5069      -82.886163      222.54464      0.5          
    173000  -915.64807     -8.4839607      215.81749      0.5          
    174000  -961.15646     -102.28469      218.29987      0.5          
    175000  -912.91591      258.44162      220.72474      0.5          
    176000  -860.7096      -41.161821      224.669        0.5          
    177000  -911.73701     -299.8309       218.62659      0.5          
    178000  -906.30014     -119.51456      218.77218      0.5          
    179000  -884.58911      129.90817      221.08234      0.5          
    180000  -957.81643      136.18527      218.62814      0.5          
    181000  -951.77181      62.031603      220.35344      0.5          
    182000  -904.52847      3.3345708      219.27363      0.5          
    183000  -957.87534     -103.04115      222.28723      0.5          
    184000  -954.87359     -56.762378      220.50718      0.5          
    185000  -933.88638      82.162753      220.8115       0.5          
    186000  -869.08959     -43.149242      221.1455       0.5          
    187000  -975.36429     -367.74075      221.32345      0.5          
    188000  -873.03441      127.80628      219.21708      0.5          
    189000  -988.24999      19.133902      218.39652      0.5          
    190000  -1019.0941     -393.05108      217.28409      0.5          
    191000  -1021.5471     -67.795934      217.53217      0.5          
    192000  -926.62558      89.862778      220.02149      0.5          
    193000  -865.39776     -235.02891      222.99351      0.5          
    194000  -827.00475     -59.928588      224.78026      0.5          
    195000  -981.54301      516.55277      218.87128      0.5          
    196000  -961.51907      107.14234      220.47536      0.5          
    197000  -988.50322     -162.97096      217.95876      0.5          
    198000  -905.47621     -88.194571      222.84427      0.5          
    199000  -927.12638     -2.5843338      219.65472      0.5          
    200000  -903.48677     -148.46909      218.03324      0.5          
    201000  -920.06842      190.13567      220.67676      0.5          
    202000  -942.08543      193.90927      222.70676      0.5          
    203000  -959.77456     -88.87637       220.7269       0.5          
    204000  -967.78237     -32.634685      216.35904      0.5          
    205000  -853.903       -114.93086      223.25005      0.5          
    206000  -796.89138      96.863838      221.41483      0.5          
    207000  -968.36368      210.76169      218.46056      0.5          
    208000  -920.04459     -148.2549       219.09896      0.5          
    209000  -954.23273     -111.30732      216.8595       0.5          
    210000  -917.9913      -87.869517      220.68699      0.5          
    211000  -977.80992      11.089953      217.84363      0.5          
    212000  -834.25642     -124.9007       220.59278      0.5          
    213000  -887.47805      31.813126      221.38194      0.5          
    214000  -988.59427      310.99367      216.84227      0.5          
    215000  -847.42833     -66.908678      219.44469      0.5          
    216000  -884.70987     -265.14692      219.33742      0.5          
    217000  -834.17697      70.599944      219.70409      0.5          
    218000  -832.47335      302.21798      221.47667      0.5          
    219000  -1002.1918     -53.625981      216.03427      0.5          
    220000  -987.00775     -8.4397435      218.70183      0.5          
    221000  -948.9667      -23.415485      219.36937      0.5          
    222000  -1010.5041     -4.7807169      217.79428      0.5          
    223000  -907.77058     -129.37281      221.72825      0.5          
    224000  -947.02324      132.48294      219.3221       0.5          
    225000  -893.927        477.19013      218.21791      0.5          
    226000  -887.23458      48.984753      222.29729      0.5          
    227000  -846.08824     -257.4918       221.39782      0.5          
    228000  -1010.8652      79.147806      215.18514      0.5          
    229000  -917.1023       212.82177      220.52433      0.5          
    230000  -912.45306     -256.35158      217.06544      0.5          
    231000  -964.34539     -70.741321      222.38136      0.5          
    232000  -955.67765      79.492086      221.39024      0.5          
    233000  -971.00932     -148.31012      221.69142      0.5          
    234000  -1030.0005      228.59529      219.72597      0.5          
    235000  -959.66013     -78.760958      218.04841      0.5          
    236000  -982.77163      134.00688      222.52234      0.5          
    237000  -1051.8719      118.57438      215.02224      0.5          
    238000  -970.88663     -175.76801      219.21478      0.5          
    239000  -974.95132      333.79277      220.10712      0.5          
    240000  -925.65443     -190.76521      224.83124      0.5          
    241000  -855.23594     -169.29434      223.12433      0.5          
    242000  -920.26333      267.11806      217.3468       0.5          
    243000  -871.62838      72.525287      220.36195      0.5          
    244000  -840.13341     -166.40305      221.5217       0.5          
    245000  -847.55688      19.083701      222.93573      0.5          
    246000  -973.56785     -62.876606      220.47647      0.5          
    247000  -856.58546     -110.71112      221.5252       0.5          
    248000  -916.62017      118.75327      218.04827      0.5          
    249000  -853.57721      17.110264      220.39495      0.5          
    250000  -817.91617     -59.560986      221.43529      0.5          
    251000  -933.89845      96.573389      218.10659      0.5          
    252000  -916.38574     -25.221041      217.7863       0.5          
    253000  -847.72217     -124.9388       220.22825      0.5          
    254000  -847.87094     -148.47243      221.22375      0.5          
    255000  -953.07332      14.204512      218.39993      0.5          
    256000  -879.08788     -12.716843      223.68667      0.5          
    257000  -781.16244      78.345573      224.07536      0.5          
    258000  -829.27993      143.23608      222.31318      0.5          
    259000  -863.95657     -107.25859      223.53001      0.5          
    260000  -909.43041      67.513094      219.99353      0.5          
    261000  -957.93861      74.42654       216.12785      0.5          
    262000  -879.81821      120.30517      218.07458      0.5          
    263000  -866.65598      63.896946      219.1729       0.5          
    264000  -833.30116     -200.29007      220.95992      0.5          
    265000  -832.65899     -129.49554      222.16999      0.5          
    266000  -988.64567     -7.7492466      216.9189       0.5          
    267000  -837.42225      107.73636      221.72514      0.5          
    268000  -791.2196      -81.747058      220.35181      0.5          
    269000  -786.874       -29.061189      220.75736      0.5          
    270000  -837.81357      154.23697      220.39475      0.5          
    271000  -748.88761      22.103457      222.30377      0.5          
    272000  -904.45011     -197.53526      219.98868      0.5          
    273000  -932.54297     -221.32535      219.44677      0.5          
    274000  -899.57129     -79.543369      220.36418      0.5          
    275000  -839.04898      143.4629       220.85596      0.5          
    276000  -888.8847      -22.762481      221.19589      0.5          
    277000  -755.69822      96.169652      224.78255      0.5          
    278000  -878.92572      272.01354      219.09521      0.5          
    279000  -858.02951      44.398955      220.57905      0.5          
    280000  -976.97554     -135.53277      215.43068      0.5          
    281000  -821.10965      303.56753      221.84107      0.5          
    282000  -998.25924     -248.48731      217.8295       0.5          
    283000  -864.15813      68.004127      222.4634       0.5          
    284000  -883.71889     -50.396106      219.6551       0.5          
    285000  -789.2074      -23.503364      223.77048      0.5          
    286000  -1025.3531      95.703426      220.49334      0.5          
    287000  -819.44709      83.604296      223.3829       0.5          
    288000  -835.72611      22.412831      220.75543      0.5          
    289000  -926.46308     -51.422434      220.07828      0.5          
    290000  -1049.919       200.15114      217.213        0.5          
    291000  -921.36008      17.685478      222.51711      0.5          
    292000  -953.51349     -73.042254      220.35693      0.5          
    293000  -968.87068      66.583707      219.95813      0.5          
    294000  -1047.7413     -283.23798      216.92471      0.5          
    295000  -941.2012      -134.62583      219.20994      0.5          
    296000  -952.34331      171.75636      219.34034      0.5          
    297000  -1041.1487     -42.708464      216.68564      0.5          
    298000  -944.92084     -188.4955       219.10928      0.5          
    299000  -994.5862      -160.44689      219.2521       0.5          
    300000  -791.81265     -56.828212      220.77322      0.5          
    301000  -978.44346      9.0542269      218.31952      0.5          
    302000  -889.96889     -172.46485      220.99735      0.5          
    303000  -941.08886      161.53495      218.31935      0.5          
    304000  -925.95222     -38.910385      216.86869      0.5          
    305000  -914.40935     -269.71793      219.81441      0.5          
    306000  -941.84812     -109.81891      220.13188      0.5          
    307000  -949.36059      25.076842      217.75769      0.5          
    308000  -948.90131     -83.691037      216.85194      0.5          
    309000  -923.88168      175.90552      217.17435      0.5          
    310000  -880.96124      99.95503       221.55449      0.5          
    311000  -963.76869     -87.832367      220.00974      0.5          
    312000  -822.93821      297.81504      220.77875      0.5          
    313000  -869.62081      10.358618      219.58306      0.5          
    314000  -807.92859     -341.28187      220.60955      0.5          
    315000  -729.64876      301.42224      223.39067      0.5          
    316000  -775.77506      74.664801      220.81454      0.5          
    317000  -717.41613     -259.99332      225.35033      0.5          
    318000  -788.96231      104.49799      222.72248      0.5          
    319000  -760.46136      270.13026      219.78604      0.5          
    320000  -808.25013     -71.674801      222.29627      0.5          
    321000  -881.75738      37.127171      220.3198       0.5          
    322000  -939.78475      107.7483       219.10615      0.5          
    323000  -936.25522      30.086986      219.10245      0.5          
    324000  -835.08213      189.18271      222.50352      0.5          
    325000  -928.04962      162.30944      218.53307      0.5          
    326000  -956.08633      98.531899      216.64421      0.5          
    327000  -922.51868     -183.22521      218.75695      0.5          
    328000  -869.01824      141.84883      223.30101      0.5          
    329000  -893.09419     -18.634209      222.05973      0.5          
    330000  -911.21802     -94.709143      219.69376      0.5          
    331000  -776.24829      76.592282      221.98387      0.5          
    332000  -929.16955     -13.48098       216.92346      0.5          
    333000  -917.2855       78.247766      219.21634      0.5          
    334000  -834.85843      111.7504       217.91757      0.5          
    335000  -828.15007     -135.4751       220.22163      0.5          
    336000  -779.75347     -126.8066       222.2621       0.5          
    337000  -856.23012     -9.8759462      221.73617      0.5          
    338000  -942.93477     -156.38898      219.87773      0.5          
    339000  -788.47268     -102.08385      224.16383      0.5          
    340000  -826.81523     -81.906484      223.88573      0.5          
    341000  -903.23298      250.92266      221.77243      0.5          
    342000  -1002.2535      121.99646      219.01133      0.5          
    343000  -972.95267     -62.812001      218.81493      0.5          
    344000  -1019.1255     -27.788225      216.35957      0.5          
    345000  -901.14341      15.542378      220.062        0.5          
    346000  -800.18168      126.90822      222.04642      0.5          
    347000  -956.43773     -229.50634      218.83568      0.5          
    348000  -990.64391     -39.328289      218.97621      0.5          
    349000  -1078.0689      160.64073      214.68539      0.5          
    350000  -978.51997     -5.5595064      218.33482      0.5          
    351000  -1025.6803      3.6501129      217.89428      0.5          
    352000  -1071.3364      42.574899      217.82107      0.5          
    353000  -904.30988      192.08703      222.08003      0.5          
    354000  -743.76585     -17.854135      223.4194       0.5          
    355000  -781.28983      5.550098       221.62226      0.5          
    356000  -795.77096      160.45567      223.98991      0.5          
    357000  -792.76196     -182.34503      220.66698      0.5          
    358000  -881.39226      98.07912       218.67284      0.5          
    359000  -825.01512      189.81677      219.55588      0.5          
    360000  -823.09641     -328.37485      219.8563       0.5          
    361000  -914.8725       47.618711      217.69122      0.5          
    362000  -823.68942      253.9875       222.70766      0.5          
    363000  -848.60991     -105.85892      221.98227      0.5          
    364000  -883.3349      -90.960304      222.88029      0.5          
    365000  -895.15565     -31.300293      219.73507      0.5          
    366000  -876.54099     -119.06888      220.8432       0.5          
    367000  -918.94676     -184.23949      220.22708      0.5          
    368000  -968.3651      -175.97867      216.48386      0.5          
    369000  -915.33773     -369.58526      218.44142      0.5          
    370000  -868.12098     -25.628879      220.18577      0.5          
    371000  -824.91992      249.84872      222.64582      0.5          
    372000  -986.44016     -490.35526      220.87531      0.5          
    373000  -933.24036     -11.790548      217.54752      0.5          
    374000  -935.26974      340.72498      218.09739      0.5          
    375000  -871.47358     -115.15508      220.73877      0.5          
    376000  -855.39088     -7.0994049      220.77482      0.5          
    377000  -915.1479      -3.6469492      219.51699      0.5          
    378000  -963.31933     -83.485921      221.16305      0.5          
    379000  -909.47267      152.01305      217.79729      0.5          
    380000  -944.47809      112.14933      221.33578      0.5          
    381000  -910.27966      75.928621      219.72046      0.5          
    382000  -1037.511       126.33617      218.10367      0.5          
    383000  -950.09874     -29.361757      218.24512      0.5          
    384000  -874.24346     -157.66209      220.32724      0.5          
    385000  -957.57837     -132.76706      220.38255      0.5          
    386000  -888.56704      70.359378      221.16332      0.5          
    387000  -866.27153      26.742418      221.6425       0.5          
    388000  -929.21161     -32.615653      219.00332      0.5          
    389000  -936.55489      12.44132       219.16869      0.5          
    390000  -940.4231       77.370449      220.15567      0.5          
    391000  -825.3975      -183.90637      222.35846      0.5          
    392000  -903.99612      182.8407       220.46059      0.5          
    393000  -829.01097     -307.97874      222.00692      0.5          
    394000  -894.36812     -158.07706      220.05623      0.5          
    395000  -773.29569      5.9974483      222.77718      0.5          
    396000  -931.91294     -83.518328      218.14941      0.5          
    397000  -809.01989      9.0043045      223.1993       0.5          
    398000  -957.81406     -170.97823      217.63612      0.5          
    399000  -955.0777      -279.63198      216.83006      0.5          
    400000  -745.38568     -208.67653      223.56848      0.5          
    401000  -866.61077      54.519073      218.81238      0.5          
    402000  -948.00618     -32.327631      218.46294      0.5          
    403000  -851.14803     -115.54348      217.57632      0.5          
    404000  -871.37992      375.32794      219.69678      0.5          
    405000  -895.56808      231.90345      216.64208      0.5          
    406000  -903.1398      -318.54055      216.3028       0.5          
    407000  -865.06313     -41.744657      220.82616      0.5          
    408000  -846.16554      32.677287      218.68614      0.5          
    409000  -942.15758     -163.68526      217.22426      0.5          
    410000  -895.79905     -18.700869      218.82113      0.5          
    411000  -961.36663     -14.080307      218.41848      0.5          
    412000  -869.46508      341.82374      221.85017      0.5          
    413000  -839.7942       64.499914      220.88284      0.5          
    414000  -906.56784     -46.902666      220.8735       0.5          
    415000  -1063.6638      32.849517      214.45561      0.5          
    416000  -935.77117      37.213336      217.00155      0.5          
    417000  -982.36554     -254.47474      222.49249      0.5          
    418000  -988.30345      125.24486      218.75457      0.5          
    419000  -1021.9957      102.001        219.46121      0.5          
    420000  -986.94268     -106.29243      220.7563       0.5          
    421000  -1071.4863     -12.184037      217.62737      0.5          
    422000  -1001.7168     -321.90398      220.15379      0.5          
    423000  -911.14443      258.6399       220.76151      0.5          
    424000  -876.1426       137.71573      223.04465      0.5          
    425000  -909.76275      295.39141      221.49055      0.5          
    426000  -963.05836      345.31939      218.57619      0.5          
    427000  -933.10585      26.619308      222.04172      0.5          
    428000  -1041.7085      15.841833      217.0278       0.5          
    429000  -874.75933      72.700317      222.8651       0.5          
    430000  -932.67562     -47.951458      222.17287      0.5          
    431000  -923.86015      30.780825      221.81913      0.5          
    432000  -998.01041      284.69279      217.39272      0.5          
    433000  -897.3069       179.42625      218.36357      0.5          
    434000  -955.14577      32.495602      218.55924      0.5          
    435000  -925.31457     -150.84094      218.79515      0.5          
    436000  -806.07702     -81.107693      221.1428       0.5          
    437000  -815.93443      256.42017      219.23935      0.5          
    438000  -822.35944      137.5388       219.21069      0.5          
    439000  -805.3671       78.755862      218.73652      0.5          
    440000  -833.13463     -55.254416      217.85831      0.5          
    441000  -768.37564      45.908998      219.60293      0.5          
    442000  -637.32776      119.09014      221.54744      0.5          
    443000  -700.84467      133.79917      222.26601      0.5          
    444000  -632.73761     -318.90265      224.1505       0.5          
    445000  -786.68836     -137.28017      215.07507      0.5          
    446000  -830.9234       106.5219       217.34965      0.5          
    447000  -720.64446     -56.171169      223.28054      0.5          
    448000  -875.24812     -228.27122      217.58628      0.5          
    449000  -854.25808     -101.01594      218.5438       0.5          
    450000  -877.62591     -97.208383      219.29572      0.5          
    451000  -945.40945     -171.63805      216.43806      0.5          
    452000  -752.10533     -91.713319      221.50743      0.5          
    453000  -771.0066      -100.2807       219.92139      0.5          
    454000  -854.81582      10.312253      219.07824      0.5          
    455000  -857.07987      77.583422      219.50823      0.5          
    456000  -830.17335      108.67841      220.80867      0.5          
    457000  -814.58882      120.47478      221.10174      0.5          
    458000  -833.67633      191.14071      223.15145      0.5          
    459000  -959.02262      11.269943      216.43156      0.5          
    460000  -923.12008     -247.13742      220.34779      0.5          
    461000  -973.09669      164.47556      220.92201      0.5          
    462000  -1000.4415      273.76864      218.60427      0.5          
    463000  -852.3476       29.630358      222.45523      0.5          
    464000  -947.93699     -135.2334       218.78718      0.5          
    465000  -911.69974      86.373121      222.5747       0.5          
    466000  -985.81083      66.560186      221.4908       0.5          
    467000  -964.39203      161.1028       218.71262      0.5          
    468000  -1001.6913     -8.5849447      219.22594      0.5          
    469000  -950.7011      -197.93982      221.0305       0.5          
    470000  -895.47523      103.65576      219.63064      0.5          
    471000  -874.70266      83.452538      221.72892      0.5          
    472000  -950.35344      53.427932      219.21568      0.5          
    473000  -990.61468      126.13796      215.01622      0.5          
    474000  -770.3116      -157.05731      223.14009      0.5          
    475000  -823.76388     -42.950771      221.22057      0.5          
    476000  -841.94028      145.24727      221.2752       0.5          
    477000  -813.37303     -4.4343999      222.32036      0.5          
    478000  -799.266       -41.102389      221.49161      0.5          
    479000  -899.32115     -27.879848      219.71114      0.5          
    480000  -884.9058       167.44831      220.95796      0.5          
    481000  -967.02417     -13.970501      217.32285      0.5          
    482000  -803.6058      -172.37352      220.3797       0.5          
    483000  -891.83679      207.28666      218.88654      0.5          
    484000  -851.98859     -109.56392      220.85492      0.5          
    485000  -855.15687     -281.5821       222.00727      0.5          
    486000  -757.24773      186.05973      221.78919      0.5          
    487000  -786.18489     -93.434595      222.28997      0.5          
    488000  -770.73252     -244.81984      222.53343      0.5          
    489000  -878.61685      77.935854      218.99882      0.5          
    490000  -994.62535     -183.74726      216.66982      0.5          
    491000  -932.68466      129.59657      216.49382      0.5          
    492000  -912.86686      227.12482      216.64084      0.5          
    493000  -887.67201     -59.012516      222.52251      0.5          
    494000  -878.97386     -136.4505       220.50597      0.5          
    495000  -1042.0825      187.42749      215.76859      0.5          
    496000  -965.15262     -176.94354      218.82549      0.5          
    497000  -917.61218      104.86148      223.30527      0.5          
    498000  -860.68025     -12.713629      219.45225      0.5          
    499000  -789.96086      16.485711      224.9731       0.5          
    500000  -886.38946     -403.61125      221.16128      0.5          
    501000  -994.96886     -118.73549      219.66812      0.5          
    502000  -1005.1117      472.05177      216.52776      0.5          
    503000  -890.24141      318.14287      224.73108      0.5          
    504000  -1024.1297     -382.74703      219.33351      0.5          
    505000  -942.17667      139.66665      219.41449      0.5          
    506000  -848.30298      196.0299       222.18447      0.5          
    507000  -914.79324      59.70704       222.7458       0.5          
    508000  -991.44124      71.554275      220.57684      0.5          
    509000  -963.70654      46.111877      218.48213      0.5          
    510000  -1095.8299     -172.68258      216.37039      0.5          
    511000  -1025.4742      30.495016      217.04159      0.5          
    512000  -880.44587      157.83717      221.69879      0.5          
    513000  -905.18524     -111.46804      217.25993      0.5          
    514000  -1007.7369     -163.53131      217.12172      0.5          
    515000  -989.53889      87.817396      217.25428      0.5          
    516000  -956.08783      80.814373      218.63575      0.5          
    517000  -868.11603     -451.76703      219.99843      0.5          
    518000  -888.73014      53.90172       217.98141      0.5          
    519000  -841.10079     -25.462576      219.19889      0.5          
    520000  -894.19004     -269.9937       217.59543      0.5          
    521000  -775.65608      160.155        222.68086      0.5          
    522000  -888.5588      -15.883706      221.89346      0.5          
    523000  -799.03221     -295.81867      220.725        0.5          
    524000  -922.09119     -95.723899      213.74722      0.5          
    525000  -832.45374      234.15718      218.48191      0.5          
    526000  -820.59609      0.53682654     218.55621      0.5          
    527000  -771.56406     -30.454404      221.60848      0.5          
    528000  -823.71953     -89.756608      217.87125      0.5          
    529000  -846.95639      61.339015      218.19308      0.5          
    530000  -801.72344      23.436338      216.54557      0.5          
    531000  -839.46697      132.88002      220.65295      0.5          
    532000  -817.98301     -259.99555      221.70802      0.5          
    533000  -724.94273     -75.415661      221.74676      0.5          
    534000  -793.13364      53.15782       220.57898      0.5          
    535000  -825.60371      150.28798      218.85081      0.5          
    536000  -824.00539     -108.36963      216.91629      0.5          
    537000  -758.41308     -110.13361      221.08757      0.5          
    538000  -683.71638      209.16695      223.59873      0.5          
    539000  -815.12246     -41.784544      221.61841      0.5          
    540000  -801.30781     -387.0988       221.29984      0.5          
    541000  -819.99226      43.841283      220.65447      0.5          
    542000  -875.56178     -49.109457      218.26454      0.5          
    543000  -768.43792      274.45662      223.93151      0.5          
    544000  -878.74318      211.50479      219.85396      0.5          
    545000  -755.30194     -36.846516      224.10665      0.5          
    546000  -818.31907     -25.105665      222.10116      0.5          
    547000  -929.84956      358.85558      218.74414      0.5          
    548000  -974.64845      75.845603      218.05534      0.5          
    549000  -904.24778      11.629994      220.74493      0.5          
    550000  -942.80379     -118.14835      221.32529      0.5          
    551000  -969.02478      103.63013      217.65973      0.5          
    552000  -880.87153      56.379794      223.42461      0.5          
    553000  -877.87301     -338.56676      222.28293      0.5          
    554000  -886.24733      464.40148      220.0757       0.5          
    555000  -886.85622      88.177693      220.80441      0.5          
    556000  -986.2409      -127.67176      218.47602      0.5          
    557000  -1008.2734     -73.824535      217.208        0.5          
    558000  -936.97057      109.93279      220.34681      0.5          
    559000  -912.80997     -108.61402      219.47781      0.5          
    560000  -947.10916     -158.65228      218.13036      0.5          
    561000  -865.63958      56.017015      219.48568      0.5          
    562000  -863.96736      115.33823      220.05146      0.5          
    563000  -808.03512      116.07387      221.46508      0.5          
    564000  -824.99233      101.99455      220.14726      0.5          
    565000  -801.12194     -84.494768      221.42093      0.5          
    566000  -733.21757     -37.149022      222.29482      0.5          
    567000  -909.94015     -80.80115       219.16662      0.5          
    568000  -804.79348      152.74654      220.99364      0.5          
    569000  -798.74073      4.6259861      222.23773      0.5          
    570000  -787.79458     -159.6783       222.19621      0.5          
    571000  -850.24219     -72.236448      220.39478      0.5          
    572000  -871.33793      97.869012      219.2622       0.5          
    573000  -791.73689     -77.810172      221.39175      0.5          
    574000  -773.89395     -280.51893      222.81936      0.5          
    575000  -809.51836      133.45104      221.74313      0.5          
    576000  -788.48167      67.658267      221.62809      0.5          
    577000  -853.3289      -216.31057      220.23262      0.5          
    578000  -780.93428     -276.38004      219.73007      0.5          
    579000  -867.20392      77.164596      217.66103      0.5          
    580000  -956.95587      150.54312      217.3981       0.5          
    581000  -847.72297      48.353611      218.86476      0.5          
    582000  -860.84373     -47.910939      222.22741      0.5          
    583000  -861.60893      60.725438      217.98994      0.5          
    584000  -855.63841     -80.596105      219.70161      0.5          
    585000  -773.44197     -169.68757      220.90103      0.5          
    586000  -888.6469      -30.252235      217.80211      0.5          
    587000  -840.21024      151.41297      219.58241      0.5          
    588000  -900.56106      197.62967      218.56919      0.5          
    589000  -812.80789     -52.745601      220.05937      0.5          
    590000  -930.34493     -8.115789       216.20197      0.5          
    591000  -820.42435      223.037        221.02886      0.5          
    592000  -840.95106      1.0418239      218.65451      0.5          
    593000  -787.59884     -40.126525      223.15544      0.5          
    594000  -887.83461      31.705893      218.52172      0.5          
    595000  -762.43196     -54.292988      222.30553      0.5          
    596000  -801.51871     -269.28918      219.30163      0.5          
    597000  -905.14779      69.112795      219.77714      0.5          
    598000  -940.55939      134.61055      217.83712      0.5          
    599000  -762.07153     -361.03207      221.7847       0.5          
    600000  -872.33079     -35.374409      219.54011      0.5          
    601000  -880.25589      424.11649      218.72326      0.5          
    602000  -776.42053     -27.942174      221.05855      0.5          
    603000  -944.89551     -217.23972      217.35598      0.5          
    604000  -875.87848      66.282993      217.61849      0.5          
    605000  -783.40937      189.89912      222.74679      0.5          
    606000  -740.45951     -214.08621      222.98263      0.5          
    607000  -832.31932     -568.94551      219.54824      0.5          
    608000  -935.97841     -163.94636      216.67592      0.5          
    609000  -892.06143      328.72196      217.46228      0.5          
    610000  -858.16998     -64.47188       219.51127      0.5          
    611000  -860.28126      194.69864      217.51369      0.5          
    612000  -818.11555      355.15417      219.98755      0.5          
    613000  -876.91395     -179.71123      218.59858      0.5          
    614000  -779.2308      -116.26928      221.05044      0.5          
    615000  -730.97649      63.500727      217.94436      0.5          
    616000  -756.44034      99.000967      219.60558      0.5          
    617000  -811.0994      -223.9912       219.82716      0.5          
    618000  -806.28919      81.484856      218.39737      0.5          
    619000  -881.1019       123.83077      217.71093      0.5          
    620000  -796.40395     -140.88472      220.44783      0.5          
    621000  -729.11242     -191.84309      221.35226      0.5          
    622000  -725.87512      95.544826      220.00404      0.5          
    623000  -854.36112     -228.41936      218.25127      0.5          
    624000  -752.70769     -112.58331      220.40312      0.5          
    625000  -844.07021     -17.927613      219.41764      0.5          
    626000  -714.05055      63.305781      221.95199      0.5          
    627000  -797.84024     -93.674841      220.16577      0.5          
    628000  -805.09411      81.020304      220.59337      0.5          
    629000  -821.72723      14.533847      220.47126      0.5          
    630000  -759.21511     -143.31188      219.78797      0.5          
    631000  -771.46218     -168.9874       222.01433      0.5          
    632000  -870.10846     -179.37913      219.92693      0.5          
    633000  -820.37837     -71.88718       221.14259      0.5          
    634000  -816.94912      18.463409      221.88096      0.5          
    635000  -787.00937      63.657386      219.99356      0.5          
    636000  -950.87354     -85.66641       216.81672      0.5          
    637000  -769.81533     -67.435034      223.24634      0.5          
    638000  -779.04843      252.97207      219.53169      0.5          
    639000  -849.55574     -183.49679      219.21519      0.5          
    640000  -911.98354      8.8707319      219.23551      0.5          
    641000  -770.46408      398.62468      224.4015       0.5          
    642000  -757.89751      3.4090597      222.79575      0.5          
    643000  -840.14943     -297.43613      221.0065       0.5          
    644000  -833.05486      28.81614       221.05238      0.5          
    645000  -775.55668      324.35448      219.49796      0.5          
    646000  -791.6522       300.29375      221.65885      0.5          
    647000  -751.00016     -87.178588      221.48741      0.5          
    648000  -893.02685      74.529838      217.2394       0.5          
    649000  -761.34699      143.48989      220.12893      0.5          
    650000  -802.3493      -71.377625      219.21621      0.5          
    651000  -869.59017     -43.442892      218.41922      0.5          
    652000  -742.5835       25.168931      218.29685      0.5          
    653000  -883.38021     -32.194696      215.87244      0.5          
    654000  -789.30274     -149.67726      218.92207      0.5          
    655000  -810.78206      56.603187      218.90326      0.5          
    656000  -675.11988     -20.669594      221.08492      0.5          
    657000  -755.23411     -202.50966      218.21636      0.5          
    658000  -806.26073     -248.67985      219.68598      0.5          
    659000  -781.36457      61.35384       215.98983      0.5          
    660000  -745.62099      0.53200175     220.08049      0.5          
    661000  -640.05906     -235.86832      223.30826      0.5          
    662000  -793.93231     -163.35559      219.01725      0.5          
    663000  -803.4288      -222.26459      219.62658      0.5          
    664000  -865.85269     -56.930235      218.91836      0.5          
    665000  -769.8636      -15.85735       220.03895      0.5          
    666000  -900.88856      15.712469      219.30396      0.5          
    667000  -770.68874     -180.84728      223.61851      0.5          
    668000  -861.97941      95.706652      218.49604      0.5          
    669000  -878.66117      94.05379       217.255        0.5          
    670000  -813.15264     -107.45873      220.80799      0.5          
    671000  -878.26981     -238.19965      218.59579      0.5          
    672000  -874.49747      58.780414      221.30911      0.5          
    673000  -950.84644      125.22101      218.57037      0.5          
    674000  -845.43172      335.24996      221.09103      0.5          
    675000  -949.23661     -116.15139      217.4701       0.5          
    676000  -988.33567      91.14855       216.53057      0.5          
    677000  -977.99543      219.58509      217.86012      0.5          
    678000  -828.80706     -74.248153      222.7399       0.5          
    679000  -853.70614     -191.13851      218.9918       0.5          
    680000  -788.30567      106.90961      221.21633      0.5          
    681000  -857.18522     -126.8808       219.40289      0.5          
    682000  -829.60172     -122.30851      222.01518      0.5          
    683000  -847.13057      187.44546      219.27243      0.5          
    684000  -919.56358     -484.66259      216.16493      0.5          
    685000  -800.3336      -161.43888      221.27658      0.5          
    686000  -848.30898      134.36376      220.20431      0.5          
    687000  -828.09179      16.685374      218.58861      0.5          
    688000  -814.74111     -182.41564      216.33781      0.5          
    689000  -688.29818     -215.42509      223.75153      0.5          
    690000  -671.25604     -119.5427       222.03238      0.5          
    691000  -763.01219      303.31235      221.90531      0.5          
    692000  -884.87534     -149.76397      215.83126      0.5          
    693000  -747.09883     -285.10691      219.18036      0.5          
    694000  -730.53076      142.56942      220.03744      0.5          
    695000  -815.16165      186.68839      219.15615      0.5          
    696000  -724.39951     -93.613881      223.13036      0.5          
    697000  -771.07935     -270.48684      220.27023      0.5          
    698000  -796.59864      57.409313      220.42073      0.5          
    699000  -738.30836      138.04128      219.97573      0.5          
    700000  -844.56172     -94.367641      221.23038      0.5          
    701000  -728.30789     -92.813289      219.81984      0.5          
    702000  -729.96634      68.978809      220.64514      0.5          
    703000  -772.68034     -65.669009      219.79513      0.5          
    704000  -757.24479     -97.150506      223.55174      0.5          
    705000  -914.04594     -30.94527       217.61059      0.5          
    706000  -832.79361      8.8296641      224.09318      0.5          
    707000  -883.10196      73.88288       219.8674       0.5          
    708000  -884.65264     -154.08883      219.80923      0.5          
    709000  -849.74556     -145.74088      219.46916      0.5          
    710000  -809.31467      343.97975      221.47392      0.5          
    711000  -788.70651      9.282219       221.93823      0.5          
    712000  -810.07067     -201.57918      220.64254      0.5          
    713000  -913.51135     -74.770272      218.82438      0.5          
    714000  -830.89769      193.19335      219.39568      0.5          
    715000  -873.81052      0.9494094      218.4604       0.5          
    716000  -958.75566      49.688777      218.45054      0.5          
    717000  -847.32865      178.87373      221.44362      0.5          
    718000  -864.63534      63.315291      218.67376      0.5          
    719000  -965.35016      105.44292      216.6736       0.5          
    720000  -982.35297     -74.057581      215.83156      0.5          
    721000  -888.01121      4.0805174      217.70242      0.5          
    722000  -807.57199      20.863153      221.51444      0.5          
    723000  -840.95291     -135.74107      218.83398      0.5          
    724000  -781.31406      147.50502      221.67647      0.5          
    725000  -877.64895      35.01548       219.62274      0.5          
    726000  -817.68933     -187.66713      217.21413      0.5          
    727000  -870.32112      82.499969      217.09186      0.5          
    728000  -873.12759     -118.37685      219.7558       0.5          
    729000  -686.20944     -109.9185       223.43957      0.5          
    730000  -740.1345       211.25668      222.05436      0.5          
    731000  -729.33353     -157.82648      222.93417      0.5          
    732000  -928.13651     -89.671708      216.50643      0.5          
    733000  -793.82865      137.10858      220.44549      0.5          
    734000  -750.79864     -0.55767441     220.05213      0.5          
    735000  -730.54576      144.68538      222.16046      0.5          
    736000  -736.49176      143.85857      220.56976      0.5          
    737000  -769.28851      42.075537      219.87856      0.5          
    738000  -818.44286     -143.16786      218.59583      0.5          
    739000  -762.49333     -436.33773      220.14788      0.5          
    740000  -778.19692      291.87632      221.46941      0.5          
    741000  -927.40897      87.600964      218.94851      0.5          
    742000  -739.00365     -207.6904       222.19385      0.5          
    743000  -826.21184      281.01914      221.39019      0.5          
    744000  -937.13904     -113.42665      220.9269       0.5          
    745000  -878.95298     -375.03423      221.80438      0.5          
    746000  -713.33305      304.57577      222.83249      0.5          
    747000  -837.93475      68.937098      218.57762      0.5          
    748000  -873.38126     -248.43659      221.72279      0.5          
    749000  -830.65986      97.901614      220.42949      0.5          
    750000  -803.9811       123.21644      221.12082      0.5          
    751000  -778.26415     -375.27209      219.31897      0.5          
    752000  -693.51771      185.84295      225.61953      0.5          
    753000  -875.71881      195.29652      219.0964       0.5          
    754000  -927.06951     -146.41481      217.47494      0.5          
    755000  -794.10159      272.05089      221.22289      0.5          
    756000  -933.15052     -50.355425      214.72398      0.5          
    757000  -868.09744     -34.56018       218.46396      0.5          
    758000  -879.03173      115.26193      220.34761      0.5          
    759000  -673.29283     -374.37597      225.76583      0.5          
    760000  -775.8762      -175.80247      221.74921      0.5          
    761000  -817.05598      79.405492      221.03271      0.5          
    762000  -667.78683     -25.595238      222.67296      0.5          
    763000  -758.97471      55.316801      221.1421       0.5          
    764000  -724.90934     -43.252386      223.46265      0.5          
    765000  -757.34657      207.76583      220.28736      0.5          
    766000  -802.05044      381.63984      219.29951      0.5          
    767000  -790.50758     -125.67632      218.97902      0.5          
    768000  -788.26761     -239.98007      218.10904      0.5          
    769000  -744.30636     -46.238077      220.19024      0.5          
    770000  -793.96937     -28.447592      219.30443      0.5          
    771000  -717.14607     -150.81804      223.04864      0.5          
    772000  -803.30569     -189.90403      220.43516      0.5          
    773000  -736.63618     -33.627819      222.28983      0.5          
    774000  -827.60502     -71.049923      216.3979       0.5          
    775000  -726.55895      191.06612      221.65987      0.5          
    776000  -750.81556      28.907822      219.9877       0.5          
    777000  -761.35325     -185.7967       221.44706      0.5          
    778000  -812.39779     -148.02252      220.18042      0.5          
    779000  -777.22553      65.993282      221.65097      0.5          
    780000  -804.11735      13.491536      219.91065      0.5          
    781000  -745.16309      252.86431      220.37299      0.5          
    782000  -815.20728      258.39762      216.14807      0.5          
    783000  -718.24447      137.16368      220.00508      0.5          
    784000  -841.84259      35.011602      219.07442      0.5          
    785000  -793.84637      13.865592      219.38926      0.5          
    786000  -734.28322      98.687765      223.18023      0.5          
    787000  -859.32026     -287.57268      216.08605      0.5          
    788000  -781.51927      79.663395      222.84262      0.5          
    789000  -740.79694      334.12328      221.5033       0.5          
    790000  -870.5718      -59.429649      216.33652      0.5          
    791000  -762.39388      183.48657      220.76443      0.5          
    792000  -716.87515      54.498554      219.52544      0.5          
    793000  -728.97983     -286.30195      221.60334      0.5          
    794000  -735.35234      17.505863      224.2917       0.5          
    795000  -744.41458     -1.2991237      217.89453      0.5          
    796000  -729.85789      276.70309      223.90931      0.5          
    797000  -797.99518      77.039342      219.02098      0.5          
    798000  -770.842       -39.72296       221.64678      0.5          
    799000  -850.16649     -42.344328      218.96415      0.5          
    800000  -763.80997     -39.608716      224.92218      0.5          
    801000  -786.56171      65.361385      219.48041      0.5          
    802000  -666.14181      117.70901      223.54544      0.5          
    803000  -817.26721      63.871535      218.66011      0.5          
    804000  -805.22604     -87.023217      218.90724      0.5          
    805000  -828.10102     -176.87897      219.12298      0.5          
    806000  -802.59818     -100.18422      217.16396      0.5          
    807000  -799.73901      102.97595      218.34058      0.5          
    808000  -733.48033     -49.123958      221.96364      0.5          
    809000  -735.81891     -245.85082      222.85181      0.5          
    810000  -952.07401     -113.15702      213.64825      0.5          
    811000  -780.73913      177.7297       218.59279      0.5          
    812000  -771.02898      17.986617      221.02458      0.5          
    813000  -755.66922     -130.77468      220.6037       0.5          
    814000  -805.83394      286.7966       219.00595      0.5          
    815000  -741.0714      -90.498764      219.60608      0.5          
    816000  -777.84293     -120.45845      220.71322      0.5          
    817000  -897.66856     -17.626958      217.34573      0.5          
    818000  -677.86906      16.369723      223.80581      0.5          
    819000  -821.24597     -279.26697      218.15557      0.5          
    820000  -825.45548      107.19995      220.62692      0.5          
    821000  -834.43417     -276.45668      218.42992      0.5          
    822000  -761.53416     -43.621098      221.11607      0.5          
    823000  -830.4218       132.32462      217.76053      0.5          
    824000  -801.65882     -54.699054      219.67506      0.5          
    825000  -863.74085      87.023676      219.09743      0.5          
    826000  -642.24574      368.05801      225.45689      0.5          
    827000  -855.42382      348.00912      219.33608      0.5          
    828000  -844.95387      253.11605      219.30513      0.5          
    829000  -802.04312      9.1811729      222.46988      0.5          
    830000  -896.85759      126.49776      219.50531      0.5          
    831000  -819.04898     -13.785032      218.69772      0.5          
    832000  -817.27125     -49.987087      220.39326      0.5          
    833000  -766.66308      2.5055508      222.82565      0.5          
    834000  -778.77493     -66.524069      222.33437      0.5          
    835000  -825.42594      90.222141      219.34892      0.5          
    836000  -800.86697      31.980557      218.57948      0.5          
    837000  -905.4694       18.365409      215.89434      0.5          
    838000  -729.61331     -170.8754       221.81441      0.5          
    839000  -827.73744     -170.04697      218.48556      0.5          
    840000  -818.14604     -96.125938      219.82929      0.5          
    841000  -618.60318     -6.5509646      223.51862      0.5          
    842000  -782.07457     -92.281805      217.41981      0.5          
    843000  -730.94427      154.39877      221.21459      0.5          
    844000  -694.30495     -117.38643      221.75912      0.5          
    845000  -704.82852     -285.00167      220.48466      0.5          
    846000  -786.06576     -41.640083      217.83049      0.5          
    847000  -840.38614      8.1289644      214.78173      0.5          
    848000  -779.22111     -59.057136      220.6391       0.5          
    849000  -752.96543      105.4645       222.98343      0.5          
    850000  -775.31639     -97.560795      219.1009       0.5          
    851000  -631.79835     -86.625562      221.45011      0.5          
    852000  -642.2619      -36.381369      223.92523      0.5          
    853000  -716.52653     -21.21983       217.6418       0.5          
    854000  -800.77166      119.4704       216.74618      0.5          
    855000  -750.54853     -34.83466       221.19119      0.5          
    856000  -793.28751     -19.146383      218.73961      0.5          
    857000  -771.28549      40.176527      221.36552      0.5          
    858000  -699.63116     -73.384985      221.18803      0.5          
    859000  -889.16511      36.24313       217.2141       0.5          
    860000  -897.18267     -103.15451      218.03071      0.5          
    861000  -775.78558     -60.325912      221.23641      0.5          
    862000  -809.26772     -127.95406      218.7416       0.5          
    863000  -755.13461     -51.30869       220.78151      0.5          
    864000  -759.48652      18.93173       221.06694      0.5          
    865000  -717.88776      152.43798      220.38133      0.5          
    866000  -760.32788      118.75414      219.58853      0.5          
    867000  -613.18612      65.228501      223.65577      0.5          
    868000  -717.7221      -7.6084871      221.994        0.5          
    869000  -677.96851     -53.359608      221.83227      0.5          
    870000  -615.22919      92.429938      224.69775      0.5          
    871000  -705.21969      136.36862      224.07917      0.5          
    872000  -692.27783     -216.88184      221.74747      0.5          
    873000  -767.25697     -18.827275      219.09962      0.5          
    874000  -689.48969      43.886019      223.09432      0.5          
    875000  -744.74462     -6.8840616      219.16797      0.5          
    876000  -727.43465      23.039681      219.97716      0.5          
    877000  -658.94758     -92.799334      221.29006      0.5          
    878000  -727.99917      23.263543      217.57546      0.5          
    879000  -704.4639      -152.44177      220.60232      0.5          
    880000  -789.55472      14.324371      217.51491      0.5          
    881000  -784.93654      60.466271      217.35271      0.5          
    882000  -723.47634     -265.51389      219.77782      0.5          
    883000  -705.32483      21.36          221.75767      0.5          
    884000  -729.94797      94.884935      217.77178      0.5          
    885000  -699.20853     -371.25539      221.07259      0.5          
    886000  -728.15635     -314.36907      221.04655      0.5          
    887000  -700.95441      135.55059      220.05708      0.5          
    888000  -775.98482     -249.20713      219.76531      0.5          
    889000  -805.63834     -221.49901      219.28377      0.5          
    890000  -808.97991      478.68002      217.36643      0.5          
    891000  -763.95714      167.92856      220.89849      0.5          
    892000  -853.68006     -310.70017      215.63299      0.5          
    893000  -811.71932      20.240238      219.37305      0.5          
    894000  -871.68063      108.74713      219.73187      0.5          
    895000  -940.85067      44.459311      215.62738      0.5          
    896000  -913.8584      -167.75253      216.82022      0.5          
    897000  -704.50526      59.7379        223.50227      0.5          
    898000  -805.46798     -39.334755      222.64774      0.5          
    899000  -790.83508     -78.6292        221.05292      0.5          
    900000  -809.38782      38.47278       219.54072      0.5          
    901000  -839.6174      -53.872208      219.94737      0.5          
    902000  -806.58636      179.20563      220.44438      0.5          
    903000  -869.67385      26.546356      220.24715      0.5          
    904000  -890.55813     -46.510807      219.08767      0.5          
    905000  -800.56581     -63.721961      220.94078      0.5          
    906000  -871.94378     -24.181725      219.66756      0.5          
    907000  -817.03376      18.35258       217.23412      0.5          
    908000  -883.86279      252.36505      217.89059      0.5          
    909000  -822.94714     -114.97418      218.69333      0.5          
    910000  -726.48131     -244.54363      224.39456      0.5          
    911000  -748.01592     -220.18898      223.16792      0.5          
    912000  -844.22845      156.1404       221.32503      0.5          
    913000  -726.79557      251.30489      220.40328      0.5          
    914000  -750.7148       245.90874      220.96104      0.5          
    915000  -726.37093     -119.32166      222.2886       0.5          
    916000  -720.61059     -139.26559      219.52052      0.5          
    917000  -716.79227     -35.089115      219.54846      0.5          
    918000  -810.64836     -231.28247      218.23609      0.5          
    919000  -718.51442      33.784423      223.44001      0.5          
    920000  -795.15064      65.407464      219.4606       0.5          
    921000  -740.12751      233.19081      222.39037      0.5          
    922000  -691.4115      -218.0441       222.2452       0.5          
    923000  -776.06044     -160.10875      218.41815      0.5          
    924000  -763.29693      306.30578      218.80152      0.5          
    925000  -807.65972      172.61634      218.95965      0.5          
    926000  -717.23436     -132.23864      219.85528      0.5          
    927000  -775.57248     -215.3885       218.72715      0.5          
    928000  -657.07449      236.98882      223.79479      0.5          
    929000  -713.30236      158.82846      221.12088      0.5          
    930000  -844.17052      268.5978       217.2239       0.5          
    931000  -769.71748      13.941481      218.21319      0.5          
    932000  -732.07762     -123.21428      219.58553      0.5          
    933000  -726.50247     -161.63715      220.40078      0.5          
    934000  -769.41706      263.01128      219.17357      0.5          
    935000  -862.44271     -94.592983      216.41021      0.5          
    936000  -750.82293     -210.06408      219.04015      0.5          
    937000  -795.05891      155.67578      217.37821      0.5          
    938000  -761.58935     -88.412104      221.29642      0.5          
    939000  -792.84487     -170.69284      220.21213      0.5          
    940000  -779.24149      178.50243      220.35588      0.5          
    941000  -883.98801      127.35166      216.24042      0.5          
    942000  -826.70371     -45.452082      220.72341      0.5          
    943000  -773.80871     -55.627292      224.11574      0.5          
    944000  -733.91512     -121.7148       222.29746      0.5          
    945000  -660.18355      238.4107       220.55259      0.5          
    946000  -665.85764     -70.598838      221.00857      0.5          
    947000  -762.47063     -64.713492      219.93472      0.5          
    948000  -751.17737     -39.057453      220.84182      0.5          
    949000  -715.66054      44.761008      224.34098      0.5          
    950000  -805.74393     -242.73695      217.73263      0.5          
    951000  -722.90072      156.30852      222.60756      0.5          
    952000  -686.6934       78.061049      220.2334       0.5          
    953000  -732.19568     -17.259416      220.73623      0.5          
    954000  -829.54153      115.89282      219.18965      0.5          
    955000  -731.76491      5.7492575      220.01972      0.5          
    956000  -697.17479      76.728547      220.24091      0.5          
    957000  -697.56908      34.411251      221.46842      0.5          
    958000  -714.01324      219.09866      219.42693      0.5          
    959000  -679.38888     -158.24088      220.87847      0.5          
    960000  -640.2768      -238.30238      221.64976      0.5          
    961000  -681.82008      213.27385      223.43817      0.5          
    962000  -706.57391      17.031361      220.32214      0.5          
    963000  -753.63885     -106.12924      219.8268       0.5          
    964000  -691.58867      156.19698      220.45367      0.5          
    965000  -757.38538      147.41858      221.0693       0.5          
    966000  -778.18107      30.696921      218.21692      0.5          
    967000  -734.12956      56.833256      222.53422      0.5          
    968000  -702.36165      3.7567278      222.43852      0.5          
    969000  -684.15504     -141.57696      220.08612      0.5          
    970000  -603.49375      52.168225      223.79204      0.5          
    971000  -704.11617     -35.066421      218.92456      0.5          
    972000  -748.39904     -20.125739      219.40543      0.5          
    973000  -793.45669     -178.53102      222.27953      0.5          
    974000  -871.16759      355.59366      218.91755      0.5          
    975000  -830.2243       64.022136      219.05161      0.5          
    976000  -653.11852     -166.1335       224.2945       0.5          
    977000  -769.75388      109.26437      218.82922      0.5          
    978000  -811.08349      227.80524      219.93506      0.5          
    979000  -730.62172     -47.749077      221.12906      0.5          
    980000  -758.58534     -18.923615      218.85325      0.5          
    981000  -720.72817      248.35651      221.88194      0.5          
    982000  -792.73117      87.261299      219.06011      0.5          
    983000  -807.06341     -181.50881      219.25546      0.5          
    984000  -853.83267      28.71161       220.7557       0.5          
    985000  -806.87592      49.711921      220.69108      0.5          
    986000  -759.95976      175.28123      220.55257      0.5          
    987000  -722.25594      17.967218      221.29712      0.5          
    988000  -916.58866     -82.814745      213.92709      0.5          
    989000  -863.85961     -30.042884      220.69613      0.5          
    990000  -739.20849      18.080021      219.8705       0.5          
    991000  -633.23428     -36.149364      222.80564      0.5          
    992000  -740.23855     -317.22979      218.35388      0.5          
    993000  -794.14583     -15.694036      218.032        0.5          
    994000  -663.46008     -97.632499      222.96198      0.5          
    995000  -748.74536     -314.57293      216.80789      0.5          
    996000  -726.9165       330.90841      218.77543      0.5          
    997000  -843.5444       125.89611      218.57138      0.5          
    998000  -668.28403     -232.94784      221.17605      0.5          
    999000  -705.89407     -21.958434      222.07708      0.5          
   1000000  -713.73496     -146.7095       222.25967      0.5          
   1001000  -805.17344     -80.913688      218.36499      0.5          
   1002000  -806.85117      0.20676423     219.0917       0.5          
   1003000  -817.27241     -102.74886      218.88154      0.5          
   1004000  -819.04527     -167.53048      220.82068      0.5          
   1005000  -700.23247      110.36908      221.11096      0.5          
   1006000  -735.9379      -14.887999      223.31252      0.5          
   1007000  -713.69932     -59.435839      220.83197      0.5          
   1008000  -773.74056      363.5544       219.52612      0.5          
   1009000  -891.81349      133.4898       218.67892      0.5          
   1010000  -729.97016      145.30237      223.47831      0.5          
   1011000  -951.85613     -41.858885      215.96487      0.5          
   1012000  -907.96667     -51.548232      219.72272      0.5          
   1013000  -805.76335      107.21588      219.89371      0.5          
   1014000  -781.96034      41.474498      221.35851      0.5          
   1015000  -954.09127     -235.07935      215.05377      0.5          
   1016000  -683.55916     -35.198295      225.22773      0.5          
   1017000  -772.72254      64.246612      221.31159      0.5          
   1018000  -875.24895     -57.404567      219.26282      0.5          
   1019000  -943.92495      84.460924      216.30946      0.5          
   1020000  -724.66359     -92.445984      221.6976       0.5          
   1021000  -820.50628     -2.8566702      218.21214      0.5          
   1022000  -867.9193       100.92773      217.26299      0.5          
   1023000  -866.87902     -88.647939      218.5463       0.5          
   1024000  -825.39937      33.73245       220.14328      0.5          
   1025000  -808.17668     -203.24478      219.84923      0.5          
   1026000  -893.87872     -38.792771      217.66351      0.5          
   1027000  -826.96588      86.426339      216.76616      0.5          
   1028000  -786.09966     -138.53293      218.80225      0.5          
[...]
   3748000  -588.64203      152.82495      220.04556      0.5          
   3749000  -588.78679     -67.052574      221.18031      0.5          
   3750000  -588.64864      249.94714      219.75524      0.5          
   3751000  -588.6905       67.445399      220.81496      0.5          
   3752000  -588.44505     -199.47762      220.73265      0.5          
   3753000  -588.83453      5.4496873      219.65421      0.5          
   3754000  -588.74084     -21.350431      220.05887      0.5          
   3755000  -588.86054      35.915899      220.48244      0.5          
   3756000  -588.88694     -104.91317      219.38871      0.5          
   3757000  -589.0208      -118.16146      219.86197      0.5          
   3758000  -589.2219       57.411838      220.90981      0.5          
   3759000  -589.19342      127.88665      222.99105      0.5          
   3760000  -588.75154      200.71556      219.44994      0.5          
   3761000  -588.87405      107.07775      219.80459      0.5          
   3762000  -588.86802      211.49807      221.62329      0.5          
   3763000  -589.13184     -56.502235      221.37695      0.5          
   3764000  -588.82391     -162.58167      223.97447      0.5          
   3765000  -588.76893      156.34462      222.87811      0.5          
   3766000  -588.81019     -32.274086      223.36216      0.5          
   3767000  -588.80115      7.5780277      221.11387      0.5          
   3768000  -588.58986     -71.387846      221.68822      0.5          
   3769000  -588.5762      -92.205024      221.39317      0.5          
   3770000  -588.9567       251.98533      222.84749      0.5          
   3771000  -588.78795      89.624825      221.90967      0.5          
   3772000  -588.65198      22.891161      221.65365      0.5          
   3773000  -588.79745     -122.82535      221.64016      0.5          
   3774000  -588.94519      102.26684      220.85389      0.5          
   3775000  -588.92718     -45.705688      223.12779      0.5          
   3776000  -588.83634     -62.363572      220.54256      0.5          
   3777000  -588.69309      177.76388      219.37717      0.5          
   3778000  -588.73656     -203.3632       222.37835      0.5          
   3779000  -588.77982     -9.4835975      220.33477      0.5          
   3780000  -588.96237      179.39651      221.90495      0.5          
   3781000  -588.87429     -44.217971      221.90652      0.5          
   3782000  -588.59702      7.0452328      224.48412      0.5          
   3783000  -588.42152      170.99383      221.53041      0.5          
   3784000  -588.88458      161.33449      222.80191      0.5          
   3785000  -588.86656      148.44951      222.2909       0.5          
   3786000  -588.51085     -7.8977422      219.10736      0.5          
   3787000  -588.46034     -155.85106      221.47752      0.5          
   3788000  -588.53653      65.945872      221.36101      0.5          
   3789000  -588.55785      269.50674      224.42269      0.5          
   3790000  -588.53425     -180.67772      221.33158      0.5          
   3791000  -588.30426     -22.430173      223.01771      0.5          
   3792000  -587.85413      124.82841      219.33615      0.5          
   3793000  -588.4031      -6.7722197      224.17221      0.5          
   3794000  -588.64663     -67.369192      222.16506      0.5          
   3795000  -588.44362      134.38382      221.81959      0.5          
   3796000  -588.37078     -39.502054      218.17868      0.5          
   3797000  -588.4428      -132.20587      221.73705      0.5          
   3798000  -588.28275     -171.10632      219.37794      0.5          
   3799000  -588.60554      172.54404      220.03108      0.5          
   3800000  -588.78346      333.61581      219.70243      0.5          
   3801000  -588.33428     -101.36444      219.98982      0.5          
   3802000  -588.26874     -350.90443      220.53198      0.5          
   3803000  -588.1886       39.08032       218.99913      0.5          
   3804000  -588.43418     -1.6969871      221.13149      0.5          
   3805000  -588.38444     -223.27339      222.09566      0.5          
   3806000  -588.05153      174.91868      221.13472      0.5          
   3807000  -588.11688     -59.143074      222.13313      0.5          
   3808000  -588.25172     -134.60234      224.30901      0.5          
   3809000  -587.87199      246.3655       220.53528      0.5          
   3810000  -587.68406     -19.03407       221.46739      0.5          
   3811000  -587.62478     -130.59003      221.6041       0.5          
   3812000  -587.96935      66.707178      220.35135      0.5          
   3813000  -588.19667      32.999124      223.37929      0.5          
   3814000  -587.90753      157.07631      223.12261      0.5          
   3815000  -587.63039     -45.258577      221.90993      0.5          
   3816000  -587.85679      69.914063      223.75265      0.5          
   3817000  -588.00466      76.497377      223.28175      0.5          
   3818000  -588.28859     -21.720842      222.707        0.5          
   3819000  -587.98636     -152.75628      220.54623      0.5          
   3820000  -587.94596      377.02605      221.77241      0.5          
   3821000  -588.17213      184.49457      222.83471      0.5          
   3822000  -588.36028     -119.82113      222.41599      0.5          
   3823000  -588.11112     -14.221442      222.41264      0.5          
   3824000  -587.91973      180.26051      219.06483      0.5          
   3825000  -588.22265     -128.61413      220.33289      0.5          
   3826000  -588.32209     -161.34161      220.90194      0.5          
   3827000  -588.05956     -47.984823      218.17878      0.5          
   3828000  -587.92667     -31.537932      217.66863      0.5          
   3829000  -588.04944      231.9495       220.01084      0.5          
   3830000  -587.93739     -88.392794      218.85807      0.5          
   3831000  -587.89698      179.61549      221.98033      0.5          
   3832000  -587.77857      82.769588      220.24175      0.5          
   3833000  -587.97308     -117.72595      220.28713      0.5          
   3834000  -588.23566     -149.12343      221.65059      0.5          
   3835000  -588.23599      190.52867      221.8028       0.5          
   3836000  -587.89262     -229.41122      219.33471      0.5          
   3837000  -588.10407     -146.95106      219.82022      0.5          
   3838000  -588.11512     -70.157762      219.70607      0.5          
   3839000  -587.98082      198.09479      221.65231      0.5          
   3840000  -588.07821      217.31004      222.63312      0.5          
   3841000  -587.61469      244.4461       221.75942      0.5          
   3842000  -587.97627      182.17796      222.19533      0.5          
   3843000  -588.06984      94.468643      220.85475      0.5          
   3844000  -588.20046      46.249203      222.76661      0.5          
   3845000  -587.98742      224.75484      224.63982      0.5          
   3846000  -587.94113      37.783613      221.89934      0.5          
   3847000  -587.90494     -2.6743296      222.79439      0.5          
   3848000  -588.15822      112.93407      223.40401      0.5          
   3849000  -588.21327      82.789387      225.37479      0.5          
   3850000  -588.02849      60.31862       222.45787      0.5          
   3851000  -588.00739      32.563912      219.53898      0.5          
   3852000  -588.5209      -134.90331      222.63712      0.5          
   3853000  -588.19254      1.318663       222.44505      0.5          
   3854000  -588.01559      29.921161      220.65816      0.5          
   3855000  -588.24756     -134.14163      220.97495      0.5          
   3856000  -588.42403     -97.453839      220.62903      0.5          
   3857000  -588.40307      155.01494      222.40206      0.5          
   3858000  -588.3241       108.45964      219.39895      0.5          
   3859000  -588.2173      -194.53575      218.71703      0.5          
   3860000  -588.43596     -157.82412      218.10546      0.5          
   3861000  -588.23265     -139.9839       219.45222      0.5          
   3862000  -588.07095     -18.382224      219.21659      0.5          
   3863000  -588.07101     -244.47476      219.36412      0.5          
   3864000  -588.00874     -93.581232      222.02838      0.5          
   3865000  -587.99725      81.144149      217.25581      0.5          
   3866000  -587.88615      60.122302      217.03774      0.5          
   3867000  -587.60207     -61.609789      218.44915      0.5          
   3868000  -587.8257       105.59427      215.23204      0.5          
   3869000  -588.05488      122.96321      221.64223      0.5          
   3870000  -587.73882     -205.8544       218.5673       0.5          
   3871000  -587.67464     -8.714335       221.76168      0.5          
   3872000  -587.79428     -152.07055      221.44961      0.5          
   3873000  -588.03375     -215.13029      221.17778      0.5          
   3874000  -587.4279       57.249707      219.75874      0.5          
   3875000  -587.25183      88.085425      220.62894      0.5          
   3876000  -587.66092     -8.0024406      223.97872      0.5          
   3877000  -588.09397      23.442057      221.73964      0.5          
   3878000  -587.83727     -46.034476      221.44303      0.5          
   3879000  -587.75758     -184.56749      222.28548      0.5          
   3880000  -587.94694     -177.38966      222.1874       0.5          
   3881000  -587.93166     -3.6924983      222.63007      0.5          
   3882000  -587.9922      -153.18531      224.04895      0.5          
   3883000  -587.49006      132.37861      224.13991      0.5          
   3884000  -587.37775      70.330937      223.70702      0.5          
   3885000  -587.4997      -94.605378      224.19749      0.5          
   3886000  -587.85433      336.26775      224.6024       0.5          
   3887000  -587.35982      16.153616      219.70692      0.5          
   3888000  -587.39616     -54.645777      220.40406      0.5          
   3889000  -587.45062      166.15176      218.97983      0.5          
   3890000  -587.69334     -34.625927      219.6811       0.5          
   3891000  -587.60167     -72.316806      218.06325      0.5          
   3892000  -587.52027      225.09601      219.30032      0.5          
   3893000  -587.4759      -40.547506      219.79164      0.5          
   3894000  -587.73553     -151.82239      221.2016       0.5          
   3895000  -587.6576       200.12126      220.04433      0.5          
   3896000  -587.62255     -110.75969      218.35583      0.5          
   3897000  -587.50179     -273.33333      218.52314      0.5          
   3898000  -587.45247     -189.39578      218.70477      0.5          
   3899000  -587.72359      121.07456      220.34345      0.5          
   3900000  -587.59878     -14.777447      220.06594      0.5          
   3901000  -587.44498      109.12382      218.85193      0.5          
   3902000  -587.46684     -57.039755      215.9427       0.5          
   3903000  -587.74354      114.57235      218.77878      0.5          
   3904000  -587.69202      159.79237      221.56173      0.5          
   3905000  -587.57458     -121.10024      221.37701      0.5          
   3906000  -587.38591     -165.58061      218.84313      0.5          
   3907000  -587.31083      121.23533      220.00882      0.5          
   3908000  -587.65778      320.56808      221.49294      0.5          
   3909000  -587.82599     -93.335896      221.65938      0.5          
   3910000  -587.67873     -447.02207      221.48848      0.5          
   3911000  -587.56538      137.09965      219.51714      0.5          
   3912000  -587.60263      312.90421      220.59303      0.5          
   3913000  -587.64962     -55.998902      220.62715      0.5          
   3914000  -587.59516      343.31975      221.72083      0.5          
   3915000  -587.54383      212.17601      220.81135      0.5          
   3916000  -587.24047     -273.5124       222.28494      0.5          
   3917000  -587.35085      57.400074      221.25184      0.5          
   3918000  -587.31805      108.34342      222.56379      0.5          
   3919000  -587.46076      16.89476       223.89799      0.5          
   3920000  -587.27271     -83.4377        222.60923      0.5          
   3921000  -587.19283      119.67169      222.66724      0.5          
   3922000  -587.23404      131.89929      221.28253      0.5          
   3923000  -587.51659      59.553625      222.67895      0.5          
   3924000  -587.07429      76.372573      218.8537       0.5          
   3925000  -587.04226      62.817882      221.02744      0.5          
   3926000  -587.18012     -229.45898      221.86026      0.5          
   3927000  -587.44602     -60.524468      222.71297      0.5          
   3928000  -587.13141      189.67331      220.546        0.5          
   3929000  -587.00719      88.629849      218.55715      0.5          
   3930000  -587.08959      63.074437      216.925        0.5          
   3931000  -587.23879      157.54203      218.68769      0.5          
   3932000  -587.01989      24.473591      217.83466      0.5          
   3933000  -586.71384     -102.6628       217.20461      0.5          
   3934000  -586.58525     -109.07808      216.75211      0.5          
   3935000  -586.69108     -281.83377      218.64949      0.5          
   3936000  -586.66285      4.0047252      219.47237      0.5          
   3937000  -586.66138     -40.071215      218.00093      0.5          
   3938000  -586.51799     -135.96193      220.38069      0.5          
   3939000  -586.78038      153.64142      218.63939      0.5          
   3940000  -587.0003      -181.24498      222.85062      0.5          
   3941000  -587.22448     -45.942662      221.02684      0.5          
   3942000  -586.89245      105.94015      219.22965      0.5          
   3943000  -586.97016     -56.229556      222.33084      0.5          
   3944000  -587.2037       69.689112      220.06786      0.5          
   3945000  -587.18191      52.834258      221.74444      0.5          
   3946000  -586.67947     -116.55422      220.50712      0.5          
   3947000  -586.93889     -209.84201      221.54854      0.5          
   3948000  -587.02714     -53.391451      220.14793      0.5          
   3949000  -587.26047      119.29179      219.4763       0.5          
   3950000  -587.06975      60.735618      223.54219      0.5          
   3951000  -586.95335      105.74485      222.49382      0.5          
   3952000  -587.10849      244.61699      224.35237      0.5          
   3953000  -587.20523     -26.426925      223.31539      0.5          
   3954000  -586.92253     -115.70383      222.54647      0.5          
   3955000  -586.934        25.18464       221.27026      0.5          
   3956000  -587.03575      138.08758      221.86208      0.5          
   3957000  -587.1769      -359.59116      220.65356      0.5          
   3958000  -586.99133      199.81993      223.75663      0.5          
   3959000  -586.91424     -169.92363      218.31452      0.5          
   3960000  -586.8916      -94.562369      219.7008       0.5          
   3961000  -586.90951     -163.92881      218.34957      0.5          
   3962000  -586.93784     -83.071551      220.55825      0.5          
   3963000  -586.71001      94.473268      222.16918      0.5          
   3964000  -586.49853      88.237883      221.65939      0.5          
   3965000  -586.42179     -66.489408      220.35182      0.5          
   3966000  -586.53096      52.093425      218.28328      0.5          
   3967000  -586.46353      40.547665      221.53417      0.5          
   3968000  -586.5011       72.838358      218.36214      0.5          
   3969000  -586.63398      245.28783      219.48084      0.5          
   3970000  -586.50789      15.523831      218.04576      0.5          
   3971000  -586.34274      108.72106      220.2313       0.5          
   3972000  -586.33834      129.05043      221.32201      0.5          
   3973000  -586.37052     -47.078751      218.98044      0.5          
   3974000  -586.25063      48.929516      220.02525      0.5          
   3975000  -586.27611      30.46261       222.75929      0.5          
   3976000  -586.38746      196.24716      224.61702      0.5          
   3977000  -586.01467     -23.544566      220.29708      0.5          
   3978000  -586.16945     -318.58188      221.30273      0.5          
   3979000  -586.01357      172.15412      218.25686      0.5          
   3980000  -586.21277      313.90305      222.18573      0.5          
   3981000  -586.12562     -185.41754      222.9318       0.5          
   3982000  -586.01008     -18.642431      221.17493      0.5          
   3983000  -586.13913      140.56537      220.22196      0.5          
   3984000  -586.07065     -31.592651      220.06492      0.5          
   3985000  -586.11593      142.96407      217.3999       0.5          
   3986000  -585.83808      2.9549507      219.24377      0.5          
   3987000  -586.03169     -333.47804      219.55948      0.5          
   3988000  -585.87063     -57.961457      220.10489      0.5          
   3989000  -585.97498     -71.413665      218.71516      0.5          
   3990000  -586.26622     -42.98565       220.45128      0.5          
   3991000  -586.26273      80.606135      217.88036      0.5          
   3992000  -585.9168       71.083344      216.48435      0.5          
   3993000  -585.89686     -192.1956       220.70996      0.5          
   3994000  -585.96624     -253.01911      221.53102      0.5          
   3995000  -586.10397      137.65075      222.30869      0.5          
   3996000  -585.88605      151.28576      218.50727      0.5          
   3997000  -585.75652      538.15145      216.12023      0.5          
   3998000  -585.92508     -104.93663      219.03428      0.5          
   3999000  -586.32605      81.375593      224.38586      0.5          
   4000000  -585.9373      -68.647553      222.07314      0.5          
Loop time of 6751.33 on 20 procs for 2000000 steps with 7050 atoms

Performance: 12.797 ns/day, 1.875 hours/ns, 296.238 timesteps/s, 2.088 Matom-step/s
99.5% CPU use with 20 MPI tasks x 1 OpenMP threads

MPI task timing breakdown:
Section |  min time  |  avg time  |  max time  |%varavg| %total
---------------------------------------------------------------
Pair    | 2207.1     | 4217.8     | 4925.2     |1557.6 | 62.47
Bond    | 19.005     | 21.088     | 23.108     |  23.4 |  0.31
Kspace  | 1332.9     | 2048.7     | 4083.9     |2266.3 | 30.35
Neigh   | 41.881     | 42.181     | 42.46      |   2.5 |  0.62
Comm    | 238.49     | 324.51     | 416.6      | 281.3 |  4.81
Output  | 0.080515   | 0.09308    | 0.26413    |  12.9 |  0.00
Modify  | 67.998     | 85.896     | 108.52     | 143.8 |  1.27
Other   |            | 11.09      |            |       |  0.16

Nlocal:          352.5 ave         424 max         283 min
Histogram: 1 2 1 0 7 4 2 2 0 1
Nghost:         5883.7 ave        6974 max        4105 min
Histogram: 4 0 4 0 0 0 0 1 3 8
Neighs:         153140 ave      185674 max       69557 min
Histogram: 4 0 0 0 0 0 0 0 10 6

Total # of neighbors = 3062792
Ave neighs/atom = 434.43858
Ave special neighs/atom = 2
Neighbor list builds = 8215
Dangerous builds = 0
System init for write_data ...
PPPM initialization ...
  using 12-bit tables for long-range coulomb (src/kspace.cpp:342)
  G vector (1/distance) = 0.20169663
  grid = 24 24 80
  stencil order = 5
  estimated absolute RMS force accuracy = 0.00286774
  estimated relative force accuracy = 8.6361139e-06
  using single precision FFTW3
  3d grid and FFT values/proc = 13718 4464
Generated 1 of 1 mixed pair_coeff terms from arithmetic mixing rule
Last active /omp style is kspace_style pppm/omp
