ITEM: TIMESTEP
0
ITEM: NUMBER OF NODES
160
ITEM: BOX BOUNDS
0 40
0 40
0 240
ITEM: NODES
1 1 0 0 0
2 1 18.75 0 0
3 1 18.75 18.75 0
4 1 0 18.75 0
5 1 0 0 93
6 1 18.75 0 93
7 1 18.75 18.75 93
8 1 0 18.75 93
9 1 0 0 93
10 1 18.75 0 93
11 1 18.75 18.75 93
12 1 0 18.75 93
13 1 0 0 111
14 1 18.75 0 111
15 1 18.75 18.75 111
16 1 0 18.75 111
17 1 0 0 111
18 1 18.75 0 111
19 1 18.75 18.75 111
20 1 0 18.75 111
21 1 0 0 129
22 1 18.75 0 129
23 1 18.75 18.75 129
24 1 0 18.75 129
25 1 0 0 129
26 1 18.75 0 129
27 1 18.75 18.75 129
28 1 0 18.75 129
29 1 0 0 147
30 1 18.75 0 147
31 1 18.75 18.75 147
32 1 0 18.75 147
33 1 0 0 147
34 1 18.75 0 147
35 1 18.75 18.75 147
36 1 0 18.75 147
37 1 0 0 240
38 1 18.75 0 240
39 1 18.75 18.75 240
40 1 0 18.75 240
41 1 0 18.75 0
42 1 18.75 18.75 0
43 1 18.75 40 0
44 1 0 40 0
45 1 0 18.75 93
46 1 18.75 18.75 93
47 1 18.75 40 93
48 1 0 40 93
49 1 0 18.75 93
50 1 18.75 18.75 93
51 1 18.75 40 93
52 1 0 40 93
53 1 0 18.75 111
54 1 18.75 18.75 111
55 1 18.75 40 111
56 1 0 40 111
57 1 0 18.75 111
58 1 18.75 18.75 111
59 1 18.75 40 111
60 1 0 40 111
61 1 0 18.75 129
62 1 18.75 18.75 129
63 1 18.75 40 129
64 1 0 40 129
65 1 0 18.75 129
66 1 18.75 18.75 129
67 1 18.75 40 129
68 1 0 40 129
69 1 0 18.75 147
70 1 18.75 18.75 147
71 1 18.75 40 147
72 1 0 40 147
73 1 0 18.75 147
74 1 18.75 18.75 147
75 1 18.75 40 147
76 1 0 40 147
77 1 0 18.75 240
78 1 18.75 18.75 240
79 1 18.75 40 240
80 1 0 40 240
81 1 18.75 0 0
82 1 40 0 0
83 1 40 18.75 0
84 1 18.75 18.75 0
85 1 18.75 0 93
86 1 40 0 93
87 1 40 18.75 93
88 1 18.75 18.75 93
89 1 18.75 0 93
90 1 40 0 93
91 1 40 18.75 93
92 1 18.75 18.75 93
93 1 18.75 0 111
94 1 40 0 111
95 1 40 18.75 111
96 1 18.75 18.75 111
97 1 18.75 0 111
98 1 40 0 111
99 1 40 18.75 111
100 1 18.75 18.75 111
101 1 18.75 0 129
102 1 40 0 129
103 1 40 18.75 129
104 1 18.75 18.75 129
105 1 18.75 0 129
106 1 40 0 129
107 1 40 18.75 129
108 1 18.75 18.75 129
109 1 18.75 0 147
110 1 40 0 147
111 1 40 18.75 147
112 1 18.75 18.75 147
113 1 18.75 0 147
114 1 40 0 147
115 1 40 18.75 147
116 1 18.75 18.75 147
117 1 18.75 0 240
118 1 40 0 240
119 1 40 18.75 240
120 1 18.75 18.75 240
121 1 18.75 18.75 0
122 1 40 18.75 0
123 1 40 40 0
124 1 18.75 40 0
125 1 18.75 18.75 93
126 1 40 18.75 93
127 1 40 40 93
128 1 18.75 40 93
129 1 18.75 18.75 93
130 1 40 18.75 93
131 1 40 40 93
132 1 18.75 40 93
133 1 18.75 18.75 111
134 1 40 18.75 111
135 1 40 40 111
136 1 18.75 40 111
137 1 18.75 18.75 111
138 1 40 18.75 111
139 1 40 40 111
140 1 18.75 40 111
141 1 18.75 18.75 129
142 1 40 18.75 129
143 1 40 40 129
144 1 18.75 40 129
145 1 18.75 18.75 129
146 1 40 18.75 129
147 1 40 40 129
148 1 18.75 40 129
149 1 18.75 18.75 147
150 1 40 18.75 147
151 1 40 40 147
152 1 18.75 40 147
153 1 18.75 18.75 147
154 1 40 18.75 147
155 1 40 40 147
156 1 18.75 40 147
157 1 18.75 18.75 240
158 1 40 18.75 240
159 1 40 40 240
160 1 18.75 40 240
ITEM: TIMESTEP
0
ITEM: NUMBER OF CUBES
20
ITEM: CUBES
1 1 1 2 3 4 5 6 7 8
2 1 9 10 11 12 13 14 15 16
3 1 17 18 19 20 21 22 23 24
4 1 25 26 27 28 29 30 31 32
5 1 33 34 35 36 37 38 39 40
6 1 41 42 43 44 45 46 47 48
7 1 49 50 51 52 53 54 55 56
8 1 57 58 59 60 61 62 63 64
9 1 65 66 67 68 69 70 71 72
10 1 73 74 75 76 77 78 79 80
11 1 81 82 83 84 85 86 87 88
12 1 89 90 91 92 93 94 95 96
13 1 97 98 99 100 101 102 103 104
14 1 105 106 107 108 109 110 111 112
15 1 113 114 115 116 117 118 119 120
16 1 121 122 123 124 125 126 127 128
17 1 129 130 131 132 133 134 135 136
18 1 137 138 139 140 141 142 143 144
19 1 145 146 147 148 149 150 151 152
20 1 153 154 155 156 157 158 159 160
