LAMMPS data file via write_data, version 29 Aug 2024, timestep = 0, units = real

7050 atoms
2 atom types
4700 bonds
1 bond types
2350 angles
1 angle types

0 40 xlo xhi
0 40 ylo yhi
0 240 zlo zhi

Masses

1 12.0107
2 15.9994

Pair Coeffs # lj/cut/coul/long/omp

1 0.0536545 2.8
2 0.156989 3.05

Bond Coeffs # harmonic/omp

1 1028.27 1.16

Angle Coeffs # harmonic/omp

1 55.96 180

Atoms # full

6895 2299 1 0.7 12.426633305686568 16.71216463603218 9.611239211522557 0 0 0
6896 2299 2 -0.35 11.551813509122484 15.993671264532498 9.864341515892034 0 0 0
6897 2299 2 -0.35 13.30161845240086 17.430684051934403 9.358810218006472 0 0 0
6914 2305 2 -0.35 17.06566790544462 5.745499264660064 32.96352642857737 0 0 0
6901 2301 1 0.7 16.347740801698254 8.657765694128589 31.841807188073407 0 0 0
6903 2301 2 -0.35 17.502928259184728 8.547688862225547 31.81897277835015 0 0 0
6902 2301 2 -0.35 15.193683979079339 8.771258231911444 31.863133744419024 0 0 0
6913 2305 1 0.7 18.22125484283155 5.642620787910157 32.93629855122301 0 0 0
6917 2306 2 -0.35 6.616798112769081 0.8586747548911671 47.31438950753578 0 0 0
6916 2306 1 0.7 7.591279395572021 1.0016733074593012 46.70181452229039 0 0 0
6918 2306 2 -0.35 8.565848872809969 1.146107196339534 46.08885405692328 0 0 0
6906 2302 2 -0.35 10.882800491278264 0.9027498112221212 43.82928415124891 0 0 0
6905 2302 2 -0.35 11.44004437567962 2.4596320466033443 45.457378811414515 0 0 0
6904 2302 1 0.7 11.155970165022193 1.6800173145412416 44.6462848891675 0 0 0
6912 2304 2 -0.35 1.3171790782383646 16.06448834483857 48.663646433313374 0 0 0
6911 2304 2 -0.35 1.0856953208292763 16.792224618399285 46.472939372489044 0 0 0
6910 2304 1 0.7 1.2014444666588622 16.42835846547896 47.568293234904516 0 0 0
1982 661 2 -0.35 0.530911626470561 1.0803671062941893 83.97609783451226 0 1 0
255 85 2 -0.35 0.07596239397384151 3.75497442446884 82.42553914320655 0 0 0
254 85 2 -0.35 2.224813928393235 4.176553924500755 83.19675443170784 0 0 0
253 85 1 0.7 1.1493025543234294 3.9577042674532166 82.8174963016325 0 0 0
292 98 1 0.7 6.5616735714696555 7.204146251711881 82.98881101555519 0 0 0
293 98 2 -0.35 6.216888856914696 7.317932313682413 84.09153992816529 0 0 0
294 98 2 -0.35 6.910808611467428 7.085256845906669 81.88861350937243 0 0 0
83 28 2 -0.35 7.511100272074684 1.795246333205484 82.28372815046086 0 0 0
42 14 2 -0.35 5.294440952958332 4.137709406912938 82.51263223252346 0 0 0
40 14 1 0.7 4.793202757981526 3.157047314805954 82.1441702401753 0 0 0
15 5 2 -0.35 3.6463762016312504 7.025542678154884 82.1496355011124 0 0 0
14 5 2 -0.35 3.2896105464976393 5.4233899283984455 80.50836448885276 0 0 0
13 5 1 0.7 3.4652103667201066 6.227166697641699 81.32668302557289 0 0 0
6920 2307 2 -0.35 1.2246298285149857 8.84302359123743 83.85912313640799 0 0 0
1981 661 1 0.7 0.6958375655179785 0.08503211637641292 84.55040016745433 0 1 0
211 71 1 0.7 16.138013344089117 9.627748760730517 83.64459887985042 0 0 0
165 55 2 -0.35 13.826434795562703 11.568103777734612 84.2092052963927 0 0 0
198 66 2 -0.35 3.485836620362639 1.8361328736828988 84.87512060942707 0 0 0
3686 1229 2 -0.35 18.605357771455648 16.065896236909186 84.05380851559728 0 0 0
159 53 2 -0.35 7.8275430000635815 4.487816953002675 84.38535859175316 0 0 0
158 53 2 -0.35 6.5899868576699285 2.6685785175471284 85.12981484903749 0 0 0
157 53 1 0.7 7.207539865662703 3.5794926468707273 84.75800722203323 0 0 0
41 14 2 -0.35 4.289357791229646 2.1811982560210748 81.76926867282714 0 0 0
25 9 1 0.7 12.534680839851728 18.619725763659062 83.25498032173819 0 0 0
3557 1186 2 -0.35 0.2404935627776249 5.908905282290839 84.75164829937692 1 0 0
287 96 2 -0.35 10.067568597450144 7.8590444006295135 80.70659031054932 0 0 0
286 96 1 0.7 9.677489909349818 8.486224238710063 81.60105123945897 0 0 0
82 28 1 0.7 8.079274379457331 0.8085682398348387 82.05471666290151 0 0 0
6919 2307 1 0.7 2.316683244277585 9.237357328685063 83.88425507656845 0 0 0
87 29 2 -0.35 18.229113302743627 3.372637650823808 85.28568662130463 0 0 0
163 55 1 0.7 13.443874593967209 12.655875169363608 84.34332625066217 0 0 0
261 87 2 -0.35 15.221113010422195 3.631855479182146 84.23652012168655 0 0 0
260 87 2 -0.35 16.0883376565137 2.035186781711406 82.79195853890788 0 0 0
259 87 1 0.7 15.65807602648044 2.842637513780753 83.50540787633003 0 0 0
246 82 2 -0.35 14.658246860288116 5.863631996578334 81.8193888517541 0 0 0
245 82 2 -0.35 12.33812302491281 5.810832006464037 81.81268057824526 0 0 0
244 82 1 0.7 13.498071923235182 5.841209295817178 81.81085316857319 0 0 0
33 11 2 -0.35 12.9163283290031 2.841376079669694 82.18583922915619 0 0 0
32 11 2 -0.35 10.644164687387143 2.378416120137544 82.0611800329399 0 0 0
31 11 1 0.7 11.78107037390179 2.6032043179811657 82.12831379686362 0 0 0
298 100 1 0.7 18.2809998677293 5.8292890097795915 83.06660917736288 0 0 0
279 93 2 -0.35 13.759409730526997 6.378900193939301 84.74250561094587 0 0 0
278 93 2 -0.35 16.073570476095256 6.473338040746623 84.90925074481758 0 0 0
277 93 1 0.7 14.91745933638545 6.416538580197375 84.82194603865754 0 0 0
212 71 2 -0.35 15.555073936543089 8.84022758642669 83.02285880065065 0 0 0
189 63 2 -0.35 17.366678680838127 0.20265574181227985 85.06840683782036 0 0 0
200 67 2 -0.35 15.52086734031008 15.448996768791025 82.57546210275453 0 0 0
99 33 2 -0.35 12.283919195568133 8.817355068498113 83.26867455110411 0 0 0
139 47 1 0.7 9.390603570794124 11.761364154184715 84.26539537114498 0 0 0
69 23 2 -0.35 10.242802588344123 6.529422457237923 84.05041403352001 0 0 0
68 23 2 -0.35 11.066249876783802 4.387455605827205 84.40811520839941 0 0 0
67 23 1 0.7 10.65142869324479 5.457158491460191 84.23159118683552 0 0 0
62 21 2 -0.35 12.846290798019366 1.9161123186375482 85.28021504550887 0 0 0
201 67 2 -0.35 16.196094064913684 17.62979129008566 82.99673066535732 0 0 0
23 8 2 -0.35 16.363065383313288 13.498434943000143 84.85080287707557 0 0 0
97 33 1 0.7 12.024058028731242 8.878856205504892 84.39788253581624 0 0 0
164 55 2 -0.35 13.055079132964378 13.741459622705397 84.47662939009723 0 0 0
299 100 2 -0.35 17.764440883922735 4.901225180139174 82.5999010652001 0 0 0
221 74 2 -0.35 5.132636718097233 15.297370400808763 84.6711882259655 0 0 0
3523 1175 1 0.7 2.1210216423092163 16.09288369444689 84.64820930858006 1 0 0
71 24 2 -0.35 9.134698756895977 18.33774801113391 82.94968766707852 0 0 0
223 75 1 0.7 4.478192752463122 18.247602971881328 82.25967874898768 0 0 0
220 74 1 0.7 6.235764781009538 15.411915920137716 84.32576345781183 0 0 0
70 24 1 0.7 9.103282368290737 18.158061060864334 84.09562910007197 0 0 0
288 96 2 -0.35 9.28686155271381 9.119315756622658 82.49240123419439 0 0 0
24 8 2 -0.35 18.351377283009114 13.004138480125645 83.75817668196463 0 0 0
140 47 2 -0.35 8.277047412211527 12.086428505077347 84.28875546201442 0 0 0
3540 1180 2 -0.35 0.5152852358104137 6.731910885259735 81.60740177273046 1 0 0
199 67 1 0.7 15.857764911600318 16.539257455732525 82.78832347146044 0 0 0
6921 2307 2 -0.35 3.408786616949009 9.62953711800756 83.90077877338769 0 0 0
3525 1175 2 -0.35 2.311384333487206 16.80269694060757 83.75003656368742 1 0 0
224 75 2 -0.35 4.9967698105012195 17.21895658802633 82.11574723147984 0 0 0
222 74 2 -0.35 7.341298076687202 15.53472418914392 83.99046289521513 0 0 0
81 27 2 -0.35 6.208204048230588 10.276409426806008 82.79282561406048 0 0 0
80 27 2 -0.35 5.291735064598793 12.347168908948111 83.3080464679482 0 0 0
79 27 1 0.7 5.750205056231583 11.310145791805915 83.05834149092573 0 0 0
72 24 2 -0.35 9.070074418180612 17.98281072571404 85.24263300921403 0 0 0
213 71 2 -0.35 16.72335931441238 10.409598356952573 84.27204100623933 0 0 0
238 80 1 0.7 10.706905511317112 15.089835722785761 83.29032763532355 0 0 0
210 70 2 -0.35 14.148960898244468 16.773023527242458 85.2850753920928 0 0 0
22 8 1 0.7 17.359243015508277 13.256308119685997 84.30549773546328 0 0 0
239 80 2 -0.35 11.088096690815672 16.060229350735664 83.80125731090658 0 0 0
240 80 2 -0.35 10.32605881642636 14.121935628820955 82.776570653215 0 0 0
27 9 2 -0.35 13.136666452578112 18.144666256576244 82.38413942227871 0 0 0
141 47 2 -0.35 10.508287539686087 11.444995391714453 84.25440417258 0 0 0
55 19 1 0.7 4.627566279550867 1.0812847252664628 91.48922450668329 0 0 0
228 76 2 -0.35 1.7188542202268806 1.666386488512965 91.81025186717939 0 0 0
96 32 2 -0.35 3.206102949604236 5.790552110077205 91.46853276207347 0 0 0
95 32 2 -0.35 2.7871327239097328 6.358804033242715 93.68025195534676 0 0 0
94 32 1 0.7 3.000720589943608 6.072283339208076 92.57581711556075 0 0 0
57 19 2 -0.35 5.041675203614459 1.843025745351776 92.2616238511631 0 0 0
295 99 1 0.7 6.7116626919639355 7.904580791341407 92.21510264687099 0 0 0
296 99 2 -0.35 5.674048055276413 8.022098984741769 92.72340506026984 0 0 0
52 18 1 0.7 8.80601697669647 8.902202472624413 95.4289007114294 0 0 0
50 17 2 -0.35 7.891143578576907 9.068858893674278 88.69364626851714 0 0 0
48 16 2 -0.35 0.42691124484094933 4.531612585657921 92.7007289910689 0 0 0
297 99 2 -0.35 7.7467782564867695 7.784579074123388 91.7026509346631 0 0 0
113 38 2 -0.35 6.222516824989112 4.819265396924211 91.98025360725947 0 0 0
39 13 2 -0.35 7.649896455163631 2.5255658961783527 93.99480368897062 0 0 0
38 13 2 -0.35 5.831472090368104 2.272557286357322 95.4167516962637 0 0 0
37 13 1 0.7 6.740834401810427 2.3966634384129963 94.70534405509459 0 0 0
9 3 2 -0.35 2.991990520701124 1.0116866738952295 94.5800519474491 0 0 0
8 3 2 -0.35 3.04540062364129 3.309209417887083 94.25173621503664 0 0 0
7 3 1 0.7 3.019300504767956 2.160550102922408 94.41782203020904 0 0 0
53 18 2 -0.35 8.009915015752652 8.319705822113844 94.81700248932495 0 0 0
1872 624 2 -0.35 12.683665686964813 0.40915436343771483 88.19846345857918 0 1 0
153 51 2 -0.35 14.765486298971572 9.002177876078358 86.13206497762829 0 0 0
776 259 2 -0.35 8.005477684065976 4.461175675842468 96.39696906186924 0 0 0
6 2 2 -0.35 18.308413685860703 11.783334388130331 86.67808558917434 0 0 0
696 232 2 -0.35 4.664498523526597 8.244213808050768 95.68186507895594 0 0 0
695 232 2 -0.35 5.4471394872558285 6.126671728279371 95.13334258259935 0 0 0
694 232 1 0.7 5.0543318622459 7.186009099469639 95.4041788087613 0 0 0
5474 1825 2 -0.35 18.32767693676839 0.5880461774573937 93.69737621531476 0 1 0
175 59 1 0.7 3.256229397355711 12.733862996251677 86.17351258640387 0 0 0
196 66 1 0.7 3.661685002987232 1.8831671999478625 86.02118148146143 0 0 0
61 21 1 0.7 12.960248276474761 2.6822803724947293 86.14527135083509 0 0 0
226 76 1 0.7 1.2571191126668657 1.1892202382499832 90.85727497232278 0 0 0
273 91 2 -0.35 1.4159329231248252 8.419929830326952 91.46420266419176 0 0 0
112 38 1 0.7 7.11995921249868 4.199494897076805 91.58388057587699 0 0 0
114 38 2 -0.35 8.026603843627246 3.599945721019597 91.17465542794933 0 0 0
271 91 1 0.7 0.5778679872664363 7.912690519906216 90.84166092877747 0 0 0
143 48 2 -0.35 5.1595859468736895 7.565220871268783 89.80257758551369 0 0 0
227 76 2 -0.35 0.8011600493630772 0.7099859313255854 89.90381862999357 0 0 0
142 48 1 0.7 4.906148726881747 6.618354361295028 89.18105552924817 0 0 0
88 30 1 0.7 6.721409792152689 1.4225851168471022 88.64863519800974 0 0 0
89 30 2 -0.35 6.165353567342153 2.220032610575554 89.28304208966176 0 0 0
56 19 2 -0.35 4.203384443360103 0.3250336212735798 90.7167484245616 0 0 0
404 135 2 -0.35 1.458874915918618 8.954548614946303 94.86295525061767 0 0 0
134 45 2 -0.35 1.771071159035814 3.6630246348682545 89.34596884579236 0 0 0
20 7 2 -0.35 5.320453484525841 8.483210800885564 86.81085374313594 0 0 0
237 79 2 -0.35 7.701502109014559 5.748319889729135 89.10463022855612 0 0 0
235 79 1 0.7 7.813632447777044 4.90611553485649 88.31406063250668 0 0 0
144 48 2 -0.35 4.664264423748065 5.670982633726776 88.55503802842279 0 0 0
90 30 2 -0.35 7.286942749133688 0.6350285431741611 88.01088373253646 0 0 0
133 45 1 0.7 1.8800631294274937 4.169695095915525 88.30764012504758 0 0 0
77 26 2 -0.35 2.342937651434629 7.941524729750168 88.48315831774494 0 0 0
236 79 2 -0.35 7.918921169182252 4.049301524059817 87.5387249042228 0 0 0
135 45 2 -0.35 1.9832491656266191 4.671375433920804 87.26574583642346 0 0 0
76 26 1 0.7 2.3283609476254674 8.777109589405212 87.67707900344729 0 0 0
197 66 2 -0.35 3.8302412898765574 1.923621624716834 87.16898244802445 0 0 0
3552 1184 2 -0.35 0.3414241113905821 1.832469887282084 87.0339501193421 1 0 0
119 40 2 -0.35 8.433415978101033 7.004608377078438 86.42305567718203 0 0 0
92 31 2 -0.35 11.413532886186198 6.190465471692436 86.97242804096058 0 0 0
241 81 1 0.7 17.992846411493563 7.037405404606179 87.14770869015379 0 0 0
151 51 1 0.7 14.337351667949507 8.756357341757436 87.18163283322306 0 0 0
29 10 2 -0.35 15.60524592215101 1.6414832273758913 87.05955296107858 0 0 0
3503 1168 2 -0.35 18.407874875222987 5.437059772545286 89.86295706233118 0 0 0
145 49 1 0.7 16.57494155288525 7.970423559479816 90.48455651613317 0 0 0
17 6 2 -0.35 18.027182516472493 2.3291887435407634 90.80221630092771 0 0 0
147 49 2 -0.35 17.35299714113276 8.82892346511511 90.54942418274732 0 0 0
182 61 2 -0.35 14.444965719024582 2.1557301458409737 94.70960524683211 0 0 0
281 94 2 -0.35 11.020733268946739 8.223916188133344 93.54549347928595 0 0 0
280 94 1 0.7 11.588449316588143 9.169007788483277 93.18136782419114 0 0 0
275 92 2 -0.35 13.510605354751808 4.089841527624731 92.20100138792505 0 0 0
274 92 1 0.7 13.27702278580908 3.281956541179573 91.4007748025228 0 0 0
234 78 2 -0.35 10.644777938823575 5.664058055603172 91.75118277887749 0 0 0
233 78 2 -0.35 9.095295524043959 5.489164217938592 93.47010285701505 0 0 0
232 78 1 0.7 9.873430434519138 5.582493665264375 92.61367045490819 0 0 0
186 62 2 -0.35 12.92618732264093 7.645698212872296 91.18078673284353 0 0 0
185 62 2 -0.35 13.061814341918977 5.82422558402212 89.74773636192556 0 0 0
184 62 1 0.7 12.990983051500635 6.7318450532394065 90.46832516237619 0 0 0
181 61 1 0.7 15.53271837491953 2.4355542592613793 95.00417092967093 0 0 0
18 6 2 -0.35 16.069828815119074 2.11621781726424 92.03368583494586 0 0 0
16 6 1 0.7 17.049466664835943 2.222544753702907 91.41934311843508 0 0 0
11 4 2 -0.35 17.643492618958696 7.680125681613934 93.34487297778412 0 0 0
276 92 2 -0.35 13.037188135199864 2.4782584960428116 90.59798751128574 0 0 0
183 61 2 -0.35 16.62339490529249 2.7065168180217936 95.2926745238868 0 0 0
860 287 2 -0.35 15.820656331211367 7.6917065465078585 96.22481367087474 0 0 0
264 88 2 -0.35 15.518877829337466 3.8660923512850442 89.39367461508851 0 0 0
774 258 2 -0.35 13.523123841860878 6.436835357785886 94.45546726271503 0 0 0
773 258 2 -0.35 15.56781168639356 5.413059398800546 94.05014186324138 0 0 0
772 258 1 0.7 14.545451232993491 5.923747789351052 94.25460928577371 0 0 0
63 21 2 -0.35 13.09019895383605 3.439670891826802 87.01536354902717 0 0 0
394 132 1 0.7 11.086265145822516 5.422536322168902 95.97950401678366 0 0 0
395 132 2 -0.35 11.680254066346277 4.426099837588199 95.94372871078674 0 0 0
396 132 2 -0.35 10.481053196248727 6.412416318465524 96.0133411921867 0 0 0
146 49 2 -0.35 15.812009124778356 7.098754834177004 90.4240436408025 0 0 0
46 16 1 0.7 0.19519517879573586 3.6474813750109325 93.41625399357603 0 0 0
161 54 2 -0.35 10.085226704222924 11.09367023170762 87.27092311748557 0 0 0
524 175 2 -0.35 11.284266826876857 1.3131572558674882 95.71636417345238 0 0 0
523 175 1 0.7 12.13874090263943 1.4339756561071793 96.49393232667151 0 0 0
178 60 1 0.7 10.334403204949451 2.813526679131013 89.4080097833541 0 0 0
1848 616 2 -0.35 9.98034435104401 0.3808983162178325 92.95765566044015 0 1 0
859 287 1 0.7 16.54391588991979 8.577890005598137 96.02889194322488 0 0 0
1846 616 1 0.7 10.317854617997371 1.4867347261720607 92.85154261926986 0 1 0
179 60 2 -0.35 10.138464921246944 1.7041816213626422 89.68735575742109 0 0 0
10 4 1 0.7 18.649943498731776 7.364969848312455 92.86090282874443 0 0 0
1847 616 2 -0.35 10.662464252406448 2.5898241094197587 92.73515134194292 0 1 0
180 60 2 -0.35 10.515174531578273 3.9254639854076023 89.12874408834614 0 0 0
262 88 1 0.7 15.505808585155936 4.673507360527871 88.55986534816306 0 0 0
30 10 2 -0.35 15.699177529874715 0.6749760422731332 89.16829806742736 0 0 0
91 31 1 0.7 11.064144982095515 6.8876803323633 87.83080220944558 0 0 0
263 88 2 -0.35 15.509390365805313 5.474549302864433 87.71945216402027 0 0 0
152 51 2 -0.35 13.898951429343914 8.495749963610544 88.22361340582123 0 0 0
98 33 2 -0.35 11.767626558386539 8.932613401855816 85.53004657622614 0 0 0
86 29 2 -0.35 18.232259644075445 3.1243659204413086 87.59377175136534 0 0 0
1883 628 2 -0.35 10.055800385724712 1.4781082629524722 86.61989912498943 0 1 0
242 81 2 -0.35 17.38909527872656 7.928556373761289 87.58376634622846 0 0 0
243 81 2 -0.35 18.60121228361527 6.144249248142121 86.72571976720388 0 0 0
266 89 2 -0.35 15.122013543393084 9.413617401147162 93.60367363180578 0 0 0
416 139 2 -0.35 18.492011077904387 4.278298141709981 93.25348528761414 0 0 0
28 10 1 0.7 15.656200937129404 1.1551795811829557 88.11264219021741 0 0 0
93 31 2 -0.35 10.715933668066073 7.600886640839092 88.67785067003669 0 0 0
1882 628 1 0.7 10.03316633238917 0.34587978473732306 86.87719600982375 0 1 0
54 18 2 -0.35 9.589979659698564 9.496154988630996 96.0460417175903 0 0 0
251 84 2 -0.35 8.385315483194487 18.567865980181853 88.87389829620265 0 0 0
131 44 2 -0.35 8.46364180873172 18.328360950545093 92.1449337298468 0 0 0
3513 1171 2 -0.35 0.5694087507928286 13.410337770830917 87.71859751758826 1 0 0
49 17 1 0.7 8.584520133014816 9.68380290963605 89.39316246787523 0 0 0
509 170 2 -0.35 0.6455531849882565 12.749833184626077 95.0842246234676 0 0 0
177 59 2 -0.35 3.9362560623752505 13.114794844370465 87.0344592231034 0 0 0
535 179 1 0.7 7.600795940342644 12.176437944093081 96.13334413295995 0 0 0
508 170 1 0.7 0.8134541416608357 13.689767229441959 95.7451109630378 0 0 0
3829 1277 1 0.7 1.3714018910302113 17.253448390636226 95.0441782727375 1 0 0
510 170 2 -0.35 0.9695495058449338 14.626456584387503 96.41318699506384 0 0 0
270 90 2 -0.35 2.6582312578716145 14.548684869189074 89.8319182408649 0 0 0
537 179 2 -0.35 8.343199820824253 12.44631537576768 95.28390613032678 0 0 0
3830 1277 2 -0.35 1.157348729613227 17.95528577769386 95.94330533133112 1 0 0
192 64 2 -0.35 5.929134426659513 10.57371444999082 90.81674024831925 0 0 0
132 44 2 -0.35 6.686921731359678 17.277102788844598 91.08166536446403 0 0 0
130 44 1 0.7 7.580273808776659 17.79730608689122 91.61052664087322 0 0 0
123 41 2 -0.35 0.12091648448646775 16.13897659000167 91.11435931770464 0 0 0
209 70 2 -0.35 12.473670969871552 16.106886300223454 86.74780440314767 0 0 0
102 34 2 -0.35 9.083134276497951 10.603324897517874 93.0416017187323 0 0 0
101 34 2 -0.35 8.274492808768978 12.612730689135363 92.20431936816153 0 0 0
100 34 1 0.7 8.678630340508835 11.607873225031245 92.62426614946429 0 0 0
75 25 2 -0.35 7.444678514126543 14.486511843121242 89.83026990808968 0 0 0
74 25 2 -0.35 5.646125796977063 14.113290875038018 91.24983280545108 0 0 0
73 25 1 0.7 6.546257177941212 14.303745100718869 90.5421497417778 0 0 0
60 20 2 -0.35 3.107337013180686 17.323249887545682 91.27213266338062 0 0 0
59 20 2 -0.35 4.448207221238541 16.61731934319461 93.03046991458707 0 0 0
58 20 1 0.7 3.771603022066528 16.962183976489055 92.15306078937013 0 0 0
302 101 2 -0.35 5.7275942896503675 13.881252708866121 94.49311757536638 0 0 0
756 252 2 -0.35 3.812920820268048 10.959227954178068 94.32158154092798 0 0 0
755 252 2 -0.35 6.110674440115248 10.783869833402605 94.0495494554112 0 0 0
754 252 1 0.7 4.960609834936638 10.86621669275427 94.18259964476819 0 0 0
403 135 1 0.7 1.722248399354656 9.601637197778828 95.78902965928314 0 0 0
206 69 2 -0.35 4.5925985488128855 4.971109103946939 85.4655134258147 0 0 0
149 50 2 -0.35 7.031291044116579 13.765454297096792 86.71911476783113 0 0 0
136 46 1 0.7 0.5027828339955251 11.452402572237542 90.28178659362315 0 0 0
64 22 1 0.7 5.804405458393831 16.37768714823796 87.68689977747593 0 0 0
208 70 1 0.7 13.31176866269569 16.43628585631175 86.01601592871481 0 0 0
1944 648 2 -0.35 3.531432411210515 18.07386925242921 86.3265213006631 0 0 0
160 54 1 0.7 11.177420219635174 11.45163592634501 87.10790600675487 0 0 0
892 298 1 0.7 2.984760561323329 12.989483404102904 92.24631618918288 0 0 0
894 298 2 -0.35 3.2592881142653165 12.066626018196603 91.5963612185464 0 0 0
493 165 1 0.7 5.257072941184159 18.197901715407955 95.37306294292536 0 0 0
494 165 2 -0.35 4.1823790782916985 18.62517235198295 95.27344678549949 0 0 0
495 165 2 -0.35 6.337333644714477 17.784338290134638 95.47671221253182 0 0 0
893 298 2 -0.35 2.719662363061756 13.908112610869654 92.90382242720644 0 0 0
301 101 1 0.7 6.450811661472212 14.664944669819327 94.0344018989356 0 0 0
51 17 2 -0.35 9.26883074540068 10.308827243264107 90.09225358703176 0 0 0
3831 1277 2 -0.35 1.5757293780866508 16.556233488962196 94.13948570614991 1 0 0
78 26 2 -0.35 2.3276737512686516 9.60086570939365 86.8593811137194 0 0 0
138 46 2 -0.35 0.2547557212081231 12.219892378094915 91.11674032936713 0 0 0
190 64 1 0.7 5.142151388266678 10.517687888640527 89.96403120759632 0 0 0
268 90 1 0.7 2.269812554624546 15.429072415053644 89.18296870520933 0 0 0
191 64 2 -0.35 4.367973894934948 10.460366295139725 89.10065113631535 0 0 0
137 46 2 -0.35 0.7533807076070357 10.67655849331352 89.45516654840245 0 0 0
269 90 2 -0.35 1.8764730517862998 16.309075838674804 88.53488518512059 0 0 0
65 22 2 -0.35 5.1039157039219925 15.850965459539907 88.44769336009976 0 0 0
3556 1186 1 0.7 0.11607421864554235 6.6489739049956915 85.63673949813256 1 0 0
66 22 2 -0.35 6.508458316674038 16.901836748755482 86.9278300619167 0 0 0
303 101 2 -0.35 7.1871055731232145 15.433614955011787 93.56965533977007 0 0 0
247 83 1 0.7 9.810280864668153 15.040614038515765 86.97801132542516 0 0 0
148 50 1 0.7 7.011468989444461 12.856471198308515 87.44028430316729 0 0 0
150 50 2 -0.35 6.998878191687377 11.960109596810424 88.17796540981338 0 0 0
19 7 1 0.7 5.4133559802815805 9.553276602057212 86.36979100821537 0 0 0
3 1 2 -0.35 12.58791056303091 10.846873877062235 89.78281416802213 0 0 0
167 56 2 -0.35 18.538735880950057 18.35421086616536 88.294545781699 0 0 0
1 1 1 0.7 13.604492877004013 10.550088369835889 90.2583963189617 0 0 0
116 39 2 -0.35 14.348986261659723 18.213326366194156 90.8713904159141 0 0 0
154 52 1 0.7 16.350749895500915 16.443374550391294 87.5224573954772 0 0 0
85 29 1 0.7 18.24176181456429 3.2465990031565686 86.43906650825683 0 0 0
258 86 2 -0.35 15.732007733853813 15.328757792484309 91.20531977848297 0 0 0
117 39 2 -0.35 16.64436428882986 18.427175714558633 91.15461073288549 0 0 0
36 12 2 -0.35 14.744642383464823 13.889420763728886 87.47924955421752 0 0 0
156 52 2 -0.35 17.14099820558485 16.007832302127593 86.7922594959125 0 0 0
248 83 2 -0.35 9.575772333130606 15.881521055391348 87.74277374534478 0 0 0
35 12 2 -0.35 15.239648613119234 11.651781252428478 87.85495956377059 0 0 0
618 206 2 -0.35 16.5694112086372 13.519665075790657 95.66368494736194 0 0 0
169 57 1 0.7 10.946158511476032 13.155289217379593 90.4410685476051 0 0 0
214 72 1 0.7 11.995335206382672 16.73475190224182 89.76375483049124 0 0 0
170 57 2 -0.35 10.602095465024538 13.301419770894851 89.34175281804691 0 0 0
215 72 2 -0.35 11.480058430433028 17.771626889059768 89.67020036169662 0 0 0
758 253 2 -0.35 12.782774368368326 14.893664411523506 96.11069794770852 0 0 0
616 206 1 0.7 15.970242288690493 14.22431242288699 94.96241014491551 0 0 0
282 94 2 -0.35 12.1502255065052 10.118288010167676 92.81877272392578 0 0 0
1994 665 2 -0.35 13.145014094143368 0.12759965349443272 92.5624129769964 0 1 0
617 206 2 -0.35 15.373331585725378 14.93095616774991 94.26023173346388 0 0 0
171 57 2 -0.35 11.279709862175832 13.009624657465192 91.54381064478433 0 0 0
359 120 2 -0.35 10.251853473204623 17.989787750364474 94.98796433075437 0 0 0
3524 1175 2 -0.35 1.920587418106178 15.379605646276486 85.54210552942082 1 0 0
256 86 1 0.7 15.144058099538084 14.36777652926357 90.92463183926066 0 0 0
44 15 2 -0.35 17.53952423580999 13.869103271945937 89.01272938014206 0 0 0
195 65 2 -0.35 17.2169957041444 18.05864636168846 94.33110683672932 0 0 0
516 172 2 -0.35 13.00943794146814 9.362693321147393 95.87014177205022 0 0 0
34 12 1 0.7 14.99708546860654 12.771546248729292 87.66565854233734 0 0 0
267 89 2 -0.35 16.32272098603688 11.352180657708127 93.16862459715261 0 0 0
265 89 1 0.7 15.715039565162582 10.387172455883023 93.38400917734566 0 0 0
219 73 2 -0.35 18.707199306457145 12.302506196753026 91.5780988440062 0 0 0
21 7 2 -0.35 5.50900801746566 10.625675913160867 85.93736744577103 0 0 0
289 97 1 0.7 13.112331226248353 16.99412733045512 93.7835761818224 0 0 0
193 65 1 0.7 18.21501330630438 18.10278340952034 93.7404496389195 0 0 0
290 97 2 -0.35 13.511584246481446 17.589363821184772 94.69677572437847 0 0 0
291 97 2 -0.35 12.705776974732721 16.399665017802935 92.87381849583412 0 0 0
129 43 2 -0.35 9.82981411573992 15.621980599325248 91.89227528789341 0 0 0
128 43 2 -0.35 10.185463152212266 14.952825057626262 94.08722506569329 0 0 0
127 43 1 0.7 10.010308805784005 15.286447943333254 92.98946854311943 0 0 0
104 35 2 -0.35 18.503993179883636 15.050796077196322 93.5338659820973 0 0 0
2 1 2 -0.35 14.627155895642428 10.249451279281562 90.71796443647732 0 0 0
861 287 2 -0.35 17.262573097455 9.46778371889792 95.83477728175578 0 0 0
257 86 2 -0.35 14.564148180371445 13.402301306218284 90.64197049041384 0 0 0
786 262 2 -0.35 11.494304334637853 12.096451471389866 95.16320079394737 0 0 0
785 262 2 -0.35 13.705183753489461 12.31245651444576 94.4893157782373 0 0 0
784 262 1 0.7 12.598244410308212 12.207076561044827 94.82281559478298 0 0 0
120 40 2 -0.35 8.336352433374662 9.142219177099594 85.5246517320353 0 0 0
115 39 1 0.7 15.497221696799427 18.31694636956461 91.01050154586018 0 0 0
216 72 2 -0.35 12.508064560444868 15.697223334649392 89.85652234228664 0 0 0
162 54 2 -0.35 12.269095484716633 11.804981482604267 86.93035839707707 0 0 0
155 52 2 -0.35 15.554979991056932 16.87667276390044 88.2482527655021 0 0 0
118 40 1 0.7 8.382148197521234 8.072151499934774 85.97104457482278 0 0 0
249 83 2 -0.35 10.040041792525939 14.19595099525954 86.2138086278471 0 0 0
43 15 1 0.7 18.686975995951585 13.718938167988096 88.91000985041967 0 0 0
207 69 2 -0.35 3.168995119393602 6.804555355316592 85.39810051337855 0 0 0
205 69 1 0.7 3.8812020279276576 5.887649149055644 85.4308984202576 0 0 0
176 59 2 -0.35 2.5766484258968116 12.353319390589244 85.31270704724955 0 0 0
2174 725 2 -0.35 6.723029875931037 0.21040295494036532 102.76765389758067 0 1 0
309 103 2 -0.35 1.93516015253379 5.300154194932161 107.98027186555373 0 0 0
809 270 2 -0.35 1.7728779152976284 2.3062460080499982 106.92569301037635 0 0 0
808 270 1 0.7 2.3718520030655976 1.4237868919612802 107.38247309265307 0 0 0
762 254 2 -0.35 6.682860780216421 4.348241847149401 105.77285494342544 0 0 0
761 254 2 -0.35 4.472833255209065 3.6863453542213085 106.04172285601227 0 0 0
760 254 1 0.7 5.57741188997873 4.0188960311386435 105.9064865726676 0 0 0
743 248 2 -0.35 6.156735516942904 3.042614354271283 101.75282941408376 0 0 0
3877 1293 1 0.7 0.8876784004137649 4.705157053440715 100.6798499452201 1 0 0
810 270 2 -0.35 2.970431139394203 0.5381221611463428 107.83634914212342 0 0 0
633 211 2 -0.35 7.72798336358867 5.544967164143524 102.50780666281914 0 0 0
714 238 2 -0.35 6.300540525891842 8.238572494456312 102.20391614863931 0 0 0
713 238 2 -0.35 4.537169615273385 8.490555116308107 103.69166981668074 0 0 0
712 238 1 0.7 5.421730869021568 8.360201482398852 102.95146555177513 0 0 0
675 225 2 -0.35 4.583995915314216 5.405049159274268 103.51857201114032 0 0 0
673 225 1 0.7 3.922081118959681 4.698537669216455 102.87812889213038 0 0 0
648 216 2 -0.35 8.69237346040566 2.6415642436300932 103.7327347194159 0 0 0
632 211 2 -0.35 9.282898808095071 7.256876207121826 102.722645083622 0 0 0
631 211 1 0.7 8.499477439422382 6.406397328744641 102.61529745494776 0 0 0
381 127 2 -0.35 14.53623841574219 18.63142967642665 102.59838785590912 0 0 0
886 296 1 0.7 3.287963896746696 7.17952771763906 106.08508080317823 0 0 0
887 296 2 -0.35 4.314579560336345 6.868858040234358 106.53003616309599 0 0 0
576 192 2 -0.35 1.3916949503396427 4.378555926785772 104.61185375107885 0 0 0
575 192 2 -0.35 0.860762471959299 2.2164807214885305 103.95386369282559 0 0 0
574 192 1 0.7 1.1226480641921812 3.29839503206241 104.28216890233588 0 0 0
857 286 2 -0.35 8.33666608769934 1.407504022010509 97.5090149905199 0 0 0
455 152 2 -0.35 6.293452467703929 1.7985265950238114 107.76630691587631 0 0 0
896 299 2 -0.35 9.191748837851996 2.9518476697906832 106.8861203020908 0 0 0
545 182 2 -0.35 7.109433998604114 7.348893974005979 105.19938391496014 0 0 0
544 182 1 0.7 7.367551706648796 7.389042584486637 106.33071825223276 0 0 0
858 286 2 -0.35 9.971726690049984 2.94790533045332 98.09203744735738 0 0 0
895 299 1 0.7 8.832403367703293 3.6360329307204733 107.75107621510784 0 0 0
3879 1293 2 -0.35 1.5434838170918952 5.133515838301115 99.8227545220093 1 0 0
744 248 2 -0.35 8.048383652415087 2.3720641089854997 100.5857953940703 0 0 0
742 248 1 0.7 7.105001469974478 2.7087860920159277 101.17255194704481 0 0 0
674 225 2 -0.35 3.2597471123291415 3.98491143635583 102.24615652118723 0 0 0
715 239 1 0.7 10.769902976463872 11.609266131576726 98.03279093145849 0 0 0
383 128 2 -0.35 2.229686858668741 7.03849262529466 102.23041410830385 0 0 0
888 296 2 -0.35 2.2624928610089095 7.488148586925724 105.63589207895139 0 0 0
546 182 2 -0.35 7.64364269944232 7.432481465483427 107.45744927569982 0 0 0
458 153 2 -0.35 4.849050647843788 6.036882950217354 100.42166065293053 0 0 0
833 278 2 -0.35 8.094333573204176 7.302412447107305 99.89990336520606 0 0 0
457 153 1 0.7 5.550112631839273 5.370750753997845 99.78059920426698 0 0 0
834 278 2 -0.35 8.313099441008758 9.3787947798319 98.88154081030841 0 0 0
2173 725 1 0.7 6.250887926890801 0.7167924395039035 103.70021973602508 0 1 0
382 128 1 0.7 1.8605133176137054 8.122110651087691 102.42603709934794 0 0 0
717 239 2 -0.35 11.62157109008941 10.841577477327736 98.21604815687807 0 0 0
2045 682 2 -0.35 3.1347531245378164 0.4124198323416729 102.36791858886002 0 1 0