LAMMPS data file via write_data, version 29 Aug 2024, timestep = 4000000, units = real

7050 atoms
2 atom types
4700 bonds
1 bond types
2350 angles
1 angle types

0 40 xlo xhi
0 40 ylo yhi
0 240 zlo zhi

Masses

1 12.0107
2 15.9994

Pair Coeffs # lj/cut/coul/long/omp

1 0.0536545 2.8
2 0.156989 3.05

Bond Coeffs # harmonic/omp

1 1028.27 1.16

Angle Coeffs # harmonic/omp

1 55.96 180

Atoms # full

1937 646 2 -0.35 16.51627177439956 18.017250686551016 23.54020422995381 3 -1 0
1936 646 1 0.7 15.550889326167097 17.674660745544006 24.091541865840007 3 -1 0
1938 646 2 -0.35 14.597191618783762 17.356999645785468 24.651969888951896 3 -1 0
4962 1654 2 -0.35 12.045776641521881 15.800668113389866 26.092035725968415 -8 0 1
4960 1654 1 0.7 12.784897830543983 14.963863864280732 25.702450731020512 -8 0 1
4961 1654 2 -0.35 13.448310931601199 14.152216081893707 25.223894780722944 -8 0 1
4615 1539 1 0.7 11.914601510419999 19.105057941492703 33.950112118635644 0 8 1
4617 1539 2 -0.35 12.532484420296404 18.124917570905716 34.06051907687507 0 8 1
4583 1528 2 -0.35 15.021071885963318 16.406672243170856 27.621169736666882 -4 -2 1
4582 1528 1 0.7 15.005667377849628 17.46379262893416 28.16892498591525 -4 -2 1
4584 1528 2 -0.35 15.133363035103248 18.457601631687595 28.784777615222538 -4 -2 1
4996 1666 1 0.7 4.570211269230066 19.070743644582635 41.78147410372366 -1 -1 1
4997 1666 2 -0.35 4.775129692465394 18.596036199466653 40.737370131748804 -1 -1 1
4998 1666 2 -0.35 4.419931843556813 19.475791374847915 42.855242703417915 -1 -1 1
1935 645 2 -0.35 6.318578844180715 9.48664970759698 69.51570274512231 1 0 0
2717 906 2 -0.35 7.688311550789443 4.438140683569283 68.37565620106254 1 12 1
2890 964 1 0.7 9.607742589043953 8.576069207631008 69.89986213028031 -3 0 1
2891 964 2 -0.35 9.420486384125422 7.856169791167185 70.79643512756982 -3 0 1
2716 906 1 0.7 8.581791566545741 4.471754304722611 69.10971038798287 1 12 1
2718 906 2 -0.35 9.49807271502922 4.386517337833615 69.80576592356752 1 12 1
2892 964 2 -0.35 9.72298159454336 9.243607454071059 68.98528796388266 -3 0 1
235 79 1 0.7 12.587847238573158 6.0689334145068585 70.37924633184502 -1 2 0
237 79 2 -0.35 13.283303080603854 5.654694464668978 71.21810869672288 -1 2 0
4094 1365 2 -0.35 14.15941010568564 9.696074969568201 70.02935956622962 -3 0 0
236 79 2 -0.35 12.015388961749478 6.576807868028145 69.4991007530632 -1 2 0
741 247 2 -0.35 12.899272197332825 8.430698134709857 66.46816030263813 1 0 0
5233 1745 1 0.7 15.558943761984887 3.729926181096617 68.68756753379243 1 -1 0
5235 1745 2 -0.35 16.23325276962331 2.79560907813224 68.55581429000355 1 -1 0
4093 1365 1 0.7 14.771553134138102 8.712083352736652 70.05504750937754 -3 0 0
4106 1369 2 -0.35 18.037059655623164 9.287485499786117 68.93029986097285 0 1 0
5234 1745 2 -0.35 14.823030377427035 4.582772717429866 68.87659801388779 1 -1 0
739 247 1 0.7 12.667366148163499 9.551286711414841 66.49962590209947 1 0 0
4095 1365 2 -0.35 15.317324543221957 7.693917880415807 70.15682484580434 -3 0 0
1933 645 1 0.7 7.003991435639449 10.282454940129877 69.99066311235273 1 0 0
1934 645 2 -0.35 7.636849376484057 11.112606400930456 70.46066165481092 1 0 0
320 107 2 -0.35 5.0545069042764315 19.083631459055333 69.5551981743689 2 -2 0
116 39 2 -0.35 0.6335940690027252 12.314328106281124 70.57206917754408 0 0 0
4105 1369 1 0.7 18.732939965944478 9.947363671941059 69.55795567438082 0 1 0
740 247 2 -0.35 12.423101601709378 10.690395617505299 66.53750826564263 1 0 0
3474 1158 2 -0.35 16.251923573574178 14.611817243704497 70.9443101759442 -1 -2 0
3472 1158 1 0.7 16.588626624127155 13.586685780588166 70.4899198036081 -1 -2 0
3473 1158 2 -0.35 16.936660851274087 12.641842377838783 69.9702723511981 -1 -2 0
5895 1965 2 -0.35 13.996556227576589 18.65921593529474 70.21719599653503 -2 4 0
1265 422 2 -0.35 18.600732612311702 17.12794983404339 68.53941741377027 -7 -5 1
1264 422 1 0.7 19.190132570912773 17.590875094578834 69.41380047883693 -7 -5 1
5893 1965 1 0.7 13.432733978456739 19.543824970116084 69.72065577357603 -2 4 0
6836 2279 2 -0.35 0.7481506872254187 5.579783984838832 78.7084277710354 0 0 0
395 132 2 -0.35 2.3790459784556637 5.745252484720035 74.43574289350303 1 1 0
6604 2202 1 0.7 4.793938006753443 9.316279879944851 74.88412911100593 -10 -1 1
865 289 1 0.7 5.364677792632603 6.906408853807468 78.21333240403561 1 -1 0
867 289 2 -0.35 5.311588836543375 7.883141299533398 77.5780820117969 1 -1 0
2077 693 1 0.7 7.090014987525919 5.605840387908085 74.30518749415522 1 0 0
866 289 2 -0.35 5.542501556521891 5.917565179845398 78.80097393985317 1 -1 0
3674 1225 2 -0.35 8.497601478446116 3.1086455838611093 77.47377197208046 5 -1 0
2079 693 2 -0.35 7.801559436480822 6.301103463024468 73.66513091280366 1 0 0
4619 1540 2 -0.35 8.102336370832607 7.719948615721597 79.60808693299634 5 -5 1
394 132 1 0.7 2.514076358689832 5.229136626442356 75.4703945239177 1 1 0
396 132 2 -0.35 2.6228902233107627 4.788466994745054 76.53568485746534 1 1 0
3673 1225 1 0.7 7.584692092554839 3.067519313088864 78.1740059783225 5 -1 0
2078 693 2 -0.35 6.2980318358384935 5.055283787924887 74.94176398895544 1 0 0
6964 2322 1 0.7 1.6132077246765206 8.34147124890241 77.7289176003594 -1 5 0
6966 2322 2 -0.35 1.4685181113541692 8.894423306194163 78.74725685592173 -1 5 0
6835 2279 1 0.7 0.6775286446063671 4.423494149958352 78.62477614149454 0 0 0
6837 2279 2 -0.35 0.5555412834237683 3.28193422449073 78.55045432072482 0 0 0
5212 1738 1 0.7 9.650302437971359 8.780282670231614 74.6360475011717 1 1 0
6965 2322 2 -0.35 1.8144234688431276 7.798105755760921 76.72405114905357 -1 5 0
3675 1225 2 -0.35 6.705747884010966 3.020191103492124 78.90322284700065 5 -1 0
6605 2202 2 -0.35 5.37793845160511 8.518215509523575 74.24009008510649 -10 -1 1
719 240 2 -0.35 3.9302877887107845 0.9775638892942924 79.3910988555785 2 2 0
2823 941 2 -0.35 7.230339864231787 0.22048223286672525 77.8272429987581 1 1 0
5214 1738 2 -0.35 8.85458912768593 9.271664466750767 73.9429716572422 1 1 0
4618 1540 1 0.7 7.4888823812355305 8.390126951836606 80.32614077772844 5 -5 1
981 327 2 -0.35 1.3220344479756763 0.018307467767456842 76.09973968046532 1 0 0
6924 2308 2 -0.35 0.9516056006394777 1.2741259813147403 80.4891675466623 -1 -2 0
718 240 1 0.7 3.791944963345996 1.5290378389008956 80.38643166949349 2 2 0
1133 378 2 -0.35 19.331162015709957 5.602672025400674 74.27980040609535 -5 0 1
1940 647 2 -0.35 18.349015430958453 7.537953965667105 72.16252370053726 -5 -2 0
341 114 2 -0.35 15.859484177242072 3.87954829088007 79.80639479731542 2 2 0
192 64 2 -0.35 11.867235711670274 4.895826090914866 79.00207787762615 1 1 0
5213 1738 2 -0.35 10.432289537086557 8.314597736201694 75.3737153264448 1 1 0
5817 1939 2 -0.35 18.730068527679787 3.461353286422135 78.77289339404874 1 0 0
6207 2069 2 -0.35 17.241538105613387 6.637697162697037 76.17486443068906 1 0 0
1874 625 2 -0.35 17.61098820212247 8.188097414992544 80.39819642853062 -3 -4 1
3836 1279 2 -0.35 11.523667565146617 7.754133920347531 78.11357780522572 2 1 0
4645 1549 1 0.7 13.990784948450354 1.5371121979603735 80.29968431312666 1 1 0
6205 2069 1 0.7 16.770049199831185 5.733510840462403 75.60022683550916 1 0 0
2150 717 2 -0.35 17.046106714177892 1.8029709494045398 74.39801981509973 -2 0 -1
4646 1549 2 -0.35 14.957027692370563 0.9170175382523791 80.13975394778303 1 1 0
1941 647 2 -0.35 17.23358374436479 9.256817455225198 73.21056281567363 -5 -2 0
1939 647 1 0.7 17.721046561313948 8.377879294201787 72.65976944112607 -5 -2 0
342 114 2 -0.35 15.533992091648516 5.423669071044648 78.08061495209739 2 2 0
3926 1309 2 -0.35 14.035829117568904 2.73960549012181 74.45191781873243 1 -1 0
3837 1279 2 -0.35 12.943552519333794 9.491333995860295 77.42788332578395 2 1 0
3835 1279 1 0.7 12.227490908825224 8.596525827524353 77.73276341079529 2 1 0
1995 665 2 -0.35 10.294071082776071 5.183941294408886 74.98339559225778 1 2 0
3925 1309 1 0.7 14.055212612495689 2.7035813816704275 75.6294183462795 1 -1 0
3927 1309 2 -0.35 14.094262971271565 2.7644441954116097 76.80880140652681 1 -1 0
340 114 1 0.7 15.712609842243449 4.624923134864527 78.92606957481529 2 2 0
2348 783 2 -0.35 14.46409300365125 7.674559899474652 74.18528841467129 2 0 0
2349 783 2 -0.35 13.383205908840319 5.856623244432844 75.20971123584283 2 0 0
2347 783 1 0.7 13.926272911599927 6.7455433282899655 74.66405160151123 2 0 0
190 64 1 0.7 11.709556967927146 4.952062600115195 80.11035288514229 1 1 0
1993 665 1 0.7 10.77544227504167 4.126940515899435 75.01460557440048 1 2 0
1994 665 2 -0.35 11.228350559756864 3.0377619552299855 75.06606818955184 1 2 0
2151 717 2 -0.35 16.83871028023515 3.144551234885895 72.55135973923423 -2 0 -1
2149 717 1 0.7 16.9467167839937 2.512897944408627 73.52085337385788 -2 0 -1
6206 2069 2 -0.35 16.312311555876402 4.78085910420535 75.14683035199609 1 0 0
6602 2201 2 -0.35 14.711839798588098 9.538395325486395 79.9490190830899 1 3 1
6475 2159 1 0.7 12.579901493228371 0.009930016766851681 75.77827217208826 -4 3 1
146 49 2 -0.35 18.598173700640082 0.33571389351506714 77.48906928689436 -2 -3 0
6476 2159 2 -0.35 12.783239090121086 0.20906067598276223 76.90029479198883 -4 3 1
4647 1549 2 -0.35 12.96603016082738 2.0892876689438826 80.41685250294051 1 1 0
3359 1120 2 -0.35 9.650390273718584 13.959583929435455 72.78063831515179 -2 -1 1
6606 2202 2 -0.35 4.292126629770403 10.164063860736892 75.51462200396772 -10 -1 1
713 238 2 -0.35 5.609032079670438 10.521168123134878 78.70478603500345 0 -3 0
216 72 2 -0.35 1.4096400790259065 15.06954481607571 72.03949902724204 2 1 0
215 72 2 -0.35 3.0379323945181587 14.53519594220861 73.65238829220006 2 1 0
5331 1777 2 -0.35 8.85718471039805 12.433449458171971 77.57389728763624 3 -3 0
1633 545 1 0.7 5.707276710847996 15.620665269844736 78.27077716235675 8 -2 1
5330 1777 2 -0.35 8.476671653665804 10.156441398920943 77.57674349316075 3 -3 0
712 238 1 0.7 5.38951447235511 11.496058075693927 78.15852193329536 0 -3 0
1635 545 2 -0.35 4.7543470778433505 15.69973438922981 78.8959873968407 8 -2 1
714 238 2 -0.35 5.066726842431034 12.491887603811742 77.63853371295109 0 -3 0
214 72 1 0.7 2.186564632598953 14.809685292382024 72.87080961888122 2 1 0
6224 2075 2 -0.35 6.440191685905119 12.507258911988936 74.72190107515823 2 -1 0
1794 598 2 -0.35 0.538116156133292 16.12158650353849 75.36630925328274 -3 -3 0
1793 598 2 -0.35 1.986399105479149 14.788317732990162 76.55306677442934 -3 -3 0
1792 598 1 0.7 1.2503487851560102 15.483065489078285 76.00836170019049 -3 -3 0
6223 2075 1 0.7 5.687217580243486 12.22452057306372 73.86207271654699 2 -1 0
6225 2075 2 -0.35 4.895325166050015 11.876066812676687 73.0967955608238 2 -1 0
4575 1525 2 -0.35 7.067289986230979 16.735166445579193 74.18961607668975 0 -1 0
4574 1525 2 -0.35 6.589147150741748 14.891966068561047 72.87601891401019 0 -1 0
4573 1525 1 0.7 6.861513530443589 15.78531910086647 73.5385779763884 0 -1 0
1634 545 2 -0.35 6.67781882641996 15.643482228848061 77.6710487742138 8 -2 1
5329 1777 1 0.7 8.703331281478969 11.299826675076828 77.54206519473799 3 -3 0
2958 986 2 -0.35 0.7300743512820516 18.986699157153282 76.77227209293963 6 5 1
4947 1649 2 -0.35 0.23716708308111123 19.332557907176813 72.9959025639648 0 -1 0
20 7 2 -0.35 13.069957494637396 19.299283482107935 79.5628367508177 -2 3 0
6603 2201 2 -0.35 16.526196957135653 10.971516830531975 79.79631532687156 1 3 1
4495 1499 1 0.7 16.653125431723534 10.112532063136015 76.5263423773133 1 0 0
4496 1499 2 -0.35 15.553384168112203 9.970866699210747 76.1657505804422 1 0 0
6601 2201 1 0.7 15.60294922402922 10.260841092927587 79.86745301643836 1 3 1
579 193 2 -0.35 13.573231910290687 10.747424015039336 73.0292449022355 1 0 0
3241 1081 1 0.7 12.315322707068495 11.871980993354047 75.9423911157851 2 2 0
200 67 2 -0.35 10.41407798054342 16.767207288008862 74.78366236918131 -1 -1 0
5461 1821 1 0.7 19.336976729360053 16.372817412056698 72.79215534989393 2 2 0
2157 719 2 -0.35 17.774499544839884 18.654735372968553 76.73516953923601 1 -1 0
577 193 1 0.7 14.387790127700836 11.517135719128834 72.79659271086858 1 0 0
4497 1499 2 -0.35 17.75233341619205 10.257405489970372 76.95660966810384 1 0 0
5890 1964 1 0.7 15.61165005031051 16.836831172112433 79.38534146315754 1 -2 1
2155 719 1 0.7 17.622867339361996 19.120102374471116 75.6902577448269 1 -1 0
199 67 1 0.7 10.250923063447964 16.70968836952129 75.92619752034985 -1 -1 0
201 67 2 -0.35 9.922308034278856 16.56976913126109 77.04751006409256 -1 -1 0
2367 789 2 -0.35 16.5016093624008 13.168026874747195 77.29589024117898 1 -1 0
5892 1964 2 -0.35 15.603516619567866 17.67836203873831 80.17077404312113 1 -2 1
3243 1081 2 -0.35 13.405898024653567 12.257796201375687 75.83189468884262 2 2 0
4068 1356 2 -0.35 11.076466733730559 11.07591967517738 79.43278389035542 0 3 0
3242 1081 2 -0.35 11.222418371437747 11.502189222097224 75.96917677292043 2 2 0
6869 2290 2 -0.35 15.230693040307575 15.332705974584755 75.07227938445583 0 0 0
6870 2290 2 -0.35 13.582770894494622 16.73985188919066 75.90746093354646 0 0 0
5462 1821 2 -0.35 19.242313065354033 17.36770812825434 73.39846481094678 2 2 0
4066 1356 1 0.7 11.144176982191244 12.208364983918784 79.58780093883857 0 3 0
3358 1120 1 0.7 10.022072504745509 12.94509804049348 72.3432572780026 -2 -1 1
2365 789 1 0.7 17.44440556533746 13.701015452092609 77.7484237942411 1 -1 0
2156 719 2 -0.35 17.371826277291884 19.52971032708635 74.65155197013554 1 -1 0
578 193 2 -0.35 15.186015175761538 12.311478853075604 72.56679086146875 1 0 0
4067 1356 2 -0.35 11.108198491274875 13.35280129635243 79.86378986207004 0 3 0
2366 789 2 -0.35 18.315281144564565 14.362731547499346 78.14816134991023 1 -1 0
3360 1120 2 -0.35 10.39781764413674 11.929163521081566 71.99081529302305 -2 -1 1
6868 2290 1 0.7 14.402164325359463 16.05763843438098 75.45936813042287 0 0 0
5891 1964 2 -0.35 15.640087375731087 15.917031070657348 78.66689206003058 1 -2 1
571 191 1 0.7 3.522510869955604 0.25948808989355615 87.62293724826584 0 1 0
1797 599 2 -0.35 1.7153440748114548 6.0344325763685 85.14482234908476 3 2 0
573 191 2 -0.35 3.3764860268255825 0.26014593064828456 88.76473337215337 0 1 0
572 191 2 -0.35 3.8012726584542444 0.2541343776845045 86.46056034061633 0 1 0
2275 759 1 0.7 5.913697020853437 2.6894988847992396 85.00516459876063 1 2 0
2276 759 2 -0.35 6.221242593926655 3.6779174943552184 85.51667250059133 1 2 0
5061 1687 2 -0.35 6.392549310353539 8.41690207432279 89.17348041454495 -1 3 1
1946 649 2 -0.35 2.1199968244645486 3.3182951750726444 86.93792753770771 -2 1 0
1947 649 2 -0.35 3.041239080014377 3.416147977352848 84.80498292027455 -2 1 0
1945 649 1 0.7 2.617465729999655 3.3519347231430707 85.87764179892154 -2 1 0
5136 1712 2 -0.35 2.7343739205266044 4.968213870164012 81.69046315199856 2 3 1
5134 1712 1 0.7 1.9078862589966539 4.343598223710922 82.22849169531688 2 3 1
6666 2222 2 -0.35 6.779308929525323 6.977022806511442 85.33178627874108 -2 5 1
1770 590 2 -0.35 9.397162219219199 0.2981946654766939 84.49518035902724 1 0 0
6039 2013 2 -0.35 1.0567334101408754 6.417565426532055 88.30666404291446 3 0 0
5135 1712 2 -0.35 1.0966844481027895 3.695498986255132 82.75895042047628 2 3 1
2867 956 2 -0.35 5.981415621221008 2.8771766074963674 88.54038661840691 0 1 0
6037 2013 1 0.7 1.0770291608468074 5.90583317683603 89.37158148009519 3 0 0
2866 956 1 0.7 6.5298596653450875 3.848590778787478 88.22802418174318 0 1 0
2277 759 2 -0.35 5.659332295066647 1.6470635732047199 84.57173664802974 1 2 0
6038 2013 2 -0.35 1.2532008871707312 5.344543254772612 90.36697215002509 3 0 0
6664 2222 1 0.7 7.917748543559786 7.163449328561644 85.4514585665971 -2 5 1
5059 1687 1 0.7 5.6250925075580565 7.553786691410833 89.1906017106847 -1 3 1
5933 1978 2 -0.35 1.408679079798305 2.4723604182100414 89.9186268777031 1 -1 1
5932 1978 1 0.7 2.315221025527656 2.806829479664343 90.55730642669174 1 -1 1
5934 1978 2 -0.35 3.256615457977623 3.1587819133099595 91.19557396545652 1 -1 1
4022 1341 2 -0.35 6.567940934909026 4.706408096649726 90.94202004111561 0 2 0
1795 599 1 0.7 1.2384786574772517 7.078493776549908 85.40566385805954 3 2 0
2868 956 2 -0.35 7.1234854120110045 4.828540252756897 88.03141503099329 0 1 0
5060 1687 2 -0.35 4.865977902836536 6.70617581925551 89.3304765122574 -1 3 1
1796 599 2 -0.35 0.7303623086422897 8.118251079461274 85.53883647422863 3 2 0
463 155 1 0.7 3.2922243392082433 9.051709594050664 82.9502064591154 -2 2 0
464 155 2 -0.35 3.2815153419872227 8.870573296794408 84.08867202353663 -2 2 0
6914 2305 2 -0.35 8.207391816225195 1.8311815596243797 90.94270944994709 0 3 0
6665 2222 2 -0.35 9.090801064698207 7.289702645842205 85.51632824407923 -2 5 1
4620 1540 2 -0.35 6.889506557932053 9.08747620172189 81.02512634686649 5 -5 1
720 240 2 -0.35 3.7351433889435577 2.1146267632646025 81.39076550891113 2 2 0
630 210 2 -0.35 2.5791941487645804 9.190251713309376 88.57352074235199 1 2 0
2069 690 2 -0.35 9.317601667580407 5.419422586933342 91.90379464908807 0 -1 0
6913 2305 1 0.7 7.902375836732086 0.7711414595061192 91.22681446217614 0 3 0
1768 590 1 0.7 8.829277373705825 0.60436408518574 85.48025578006323 1 0 0
1769 590 2 -0.35 8.137268443328123 0.8673617050050433 86.3944171514219 1 0 0
5249 1750 2 -0.35 9.391771612297989 7.115669442569298 82.57820823667535 3 -1 0
5033 1678 2 -0.35 9.47122649346969 8.01095279205859 89.82604641061093 -1 0 1
465 155 2 -0.35 3.208557901358242 9.258286429182288 81.82554375156866 -2 2 0
5032 1678 1 0.7 9.576945884538311 8.779701175505172 88.94774953536928 -1 0 1
5034 1678 2 -0.35 9.634194134174024 9.481794461467361 88.0186094671261 -1 0 1
4021 1341 1 0.7 5.762816362523732 5.005582995821367 91.69806453371723 0 2 0
247 83 1 0.7 6.654337272321746 0.5171856455542061 81.947142791752 -1 0 0
249 83 2 -0.35 7.420135985508914 1.3173779112844972 82.27132780201325 -1 0 0
6159 2053 2 -0.35 2.554225808053345 8.338447621237513 91.86807438884654 0 1 0
93 31 2 -0.35 12.730447937598392 0.011588718880901183 86.86852141694054 -1 3 0
1873 625 1 0.7 18.693398246373366 8.141211050152421 80.76473049410005 -3 -4 1
2068 690 1 0.7 9.68601053001877 5.18828401862399 90.81743708622197 0 -1 0
2855 952 2 -0.35 12.301008243740064 1.0896437852357233 83.1826365513567 -1 0 0
2583 861 2 -0.35 15.732067149409936 0.2122846475551228 86.86508737395188 -3 3 1
1370 457 2 -0.35 14.140264001540295 0.10406095655677917 91.24075079365828 2 1 0
5302 1768 1 0.7 17.65870250176498 1.0565275334370616 81.68749470579708 0 3 0
2856 952 2 -0.35 10.462114470608785 2.1396616211946338 82.2648974285594 -1 0 0
1369 457 1 0.7 13.422523671602363 1.01239018952159 91.31785579539516 2 1 0
2582 861 2 -0.35 17.075202931358046 1.4944122190501596 85.53625739712884 -3 3 1
2581 861 1 0.7 16.348918662575677 0.888957050675099 86.18050081239662 -3 3 1
5248 1750 1 0.7 9.868814157110581 8.110983532042814 82.90193864540232 3 -1 0
2854 952 1 0.7 11.313567476862241 1.5155756621214087 82.74423261475243 -1 0 0
3468 1156 2 -0.35 18.11104963706945 6.734110950436043 88.72967741473565 1 1 0
6125 2042 2 -0.35 17.561474978975674 7.0946131885458055 83.37840531954566 3 -1 0
2996 999 2 -0.35 16.733581855505754 3.814084768209209 90.67344561554819 0 2 0
5723 1908 2 -0.35 16.52947182562169 4.373076529649346 87.50599870020183 2 2 0
6126 2042 2 -0.35 17.6019678049556 8.27101018111241 85.3773725733467 3 -1 0
916 306 1 0.7 15.854510190641196 3.4209435894897036 83.48763605709516 -4 -3 0
5724 1908 2 -0.35 14.372077004560133 4.955650512130742 86.87786875211103 2 2 0
5722 1908 1 0.7 15.461688752701424 4.687546621701278 87.17280682371546 2 2 0
6124 2042 1 0.7 17.525155787487726 7.72729084713249 84.37663393656396 3 -1 0
3605 1202 2 -0.35 14.497044761492987 6.244539694205802 82.71842344402387 -4 4 0
918 306 2 -0.35 15.424279331427279 2.7385003679563296 82.62696467848669 -4 -3 0
1439 480 2 -0.35 10.637481008187141 4.192858751162661 84.98840649958233 -1 1 0
1440 480 2 -0.35 12.277734618299078 5.8699482392607285 84.87673140240221 -1 1 0
794 265 2 -0.35 14.35448927400123 8.406732440038365 85.53274782203638 1 -1 0
1438 480 1 0.7 11.459961348515833 5.033099446083746 84.90290645201985 -1 1 0
795 265 2 -0.35 13.368278262859947 7.849486504614953 87.54670508607289 1 -1 0
793 265 1 0.7 13.882752096236588 8.083657484322561 86.54004207014422 1 -1 0
3604 1202 1 0.7 13.731253947340601 7.111597157294596 82.6002759672966 -4 4 0
917 306 2 -0.35 16.282588947409536 4.125062859613762 84.32347630110989 -4 -3 0
2995 999 1 0.7 15.9874896217751 3.074662952023873 90.12874648125735 0 2 0
191 64 2 -0.35 11.452333307209582 4.968906039242168 81.2478112065393 1 1 0
3466 1156 1 0.7 19.111306688133972 6.27238239243966 88.39642194608072 1 1 0
845 282 2 -0.35 12.536016184758774 2.755027791704725 88.68939906829314 1 0 0
844 282 1 0.7 11.445636570381444 2.7123961495762305 88.34086711686626 1 0 0
2997 999 2 -0.35 15.265467562755825 2.3338923166485266 89.60603078292665 0 2 0
846 282 2 -0.35 10.348927395060532 2.547684125219121 88.01428836169865 1 0 0
3606 1202 2 -0.35 12.954644420532894 8.016053239312827 82.5344762229802 -4 4 0
5304 1768 2 -0.35 17.969476409839572 2.157390663669932 81.4297516309044 0 3 0
92 31 2 -0.35 13.51368049858273 2.0896909190454345 86.11562823558509 -1 3 0
1371 457 2 -0.35 12.773361670532278 1.9536896460564568 91.38739768487025 2 1 0
2070 690 2 -0.35 10.079351410989698 4.942473466404945 89.75192697860832 0 -1 0
91 31 1 0.7 13.105107129988943 1.0764981644872336 86.53602995322639 -1 3 0
410 137 2 -0.35 19.223477505840496 4.6909023718577645 82.43435456835007 1 -2 0
5229 1743 2 -0.35 16.929166709311257 0.4578480855157036 91.82751157142295 0 1 0
5112 1704 2 -0.35 13.468294245889105 5.714553047185643 91.50535106578761 -1 0 0
5250 1750 2 -0.35 10.34239560186663 9.119413200209728 83.2854625937509 3 -1 0
3153 1051 2 -0.35 0.21063489918347725 10.620779579013666 84.02302873253707 2 -1 0
1850 617 2 -0.35 8.265842480227633 12.153786233391928 80.53326755659089 0 -3 0
715 239 1 0.7 0.4428100350087226 18.973761842736437 89.22837939533204 1 0 0
2547 849 2 -0.35 3.983332417629021 14.679164656472086 89.34139873162187 1 -1 0
1217 406 2 -0.35 7.113672750620427 14.95259323258319 81.08751999075676 2 -5 0
1216 406 1 0.7 7.374187665749151 16.1206752177668 81.05662770971638 2 -5 0
1534 512 1 0.7 8.944891054907927 13.681935556586254 90.70085943955169 4 4 0
2546 849 2 -0.35 2.0704188080310097 14.840565145314997 90.62480356304695 1 -1 0
3152 1051 2 -0.35 0.9136391075565344 12.36487894520785 85.3520585031531 2 -1 0
2636 879 2 -0.35 1.9302778150161877 14.495180243803354 83.16571810368998 2 2 0
3683 1228 2 -0.35 6.720933977839827 18.957029324636903 84.06665611410926 1 -1 0
1536 512 2 -0.35 7.952739704370151 13.35196956973145 91.19695720292259 4 4 0
5245 1749 1 0.7 0.7777813511310638 19.728863075604696 80.77781343646147 1 1 0
5246 1749 2 -0.35 1.2950993498571783 18.784609856893166 81.22892861264408 1 1 0
2637 879 2 -0.35 0.10745514096848599 15.982569541091134 82.93081334118907 2 2 0
2635 879 1 0.7 1.0075169455956043 15.2451983015502 83.03890991830339 2 2 0
1851 617 2 -0.35 6.935796294811683 12.194125727832855 82.45617725367411 0 -3 0
3875 1292 2 -0.35 7.757145222211025 18.0013375902977 88.19016149834694 1 2 0
1356 452 2 -0.35 3.5788304882416 17.613058645431213 83.45253652956725 -2 -3 1
629 210 2 -0.35 2.3770002121657816 11.086681904524333 89.86571592283514 1 2 0
628 210 1 0.7 2.495748886494095 10.122836474754342 89.25450263519662 1 2 0
3959 1320 2 -0.35 5.628922836318187 15.845152422337744 87.06647879824322 1 1 0
3616 1206 1 0.7 7.937200172467231 11.17129011973166 85.21947025839859 3 1 0
3617 1206 2 -0.35 7.550899145859407 10.078212007536727 85.29179438089467 3 1 0
3618 1206 2 -0.35 8.263738444684384 12.281236968310347 85.16796772354306 3 1 0
1890 630 2 -0.35 1.4992856741610767 19.453806761515242 84.33139659604494 1 -1 0
1354 452 1 0.7 3.882086869373449 17.448658162918676 82.34204581818156 -2 -3 1
3335 1112 2 -0.35 1.2836739474516077 13.957360027717481 87.84517737246455 -1 1 0
3334 1112 1 0.7 0.6710888943918818 14.83485185763402 87.36975232655816 -1 1 0
3960 1320 2 -0.35 5.812313909439145 13.695498665629673 86.18011037541959 1 1 0
4786 1596 1 0.7 5.806173690509535 11.366640699337133 89.62417256932484 1 1 0
1889 630 2 -0.35 2.2630189087737373 18.842775610372435 86.3983049381265 1 -1 0
4787 1596 2 -0.35 6.159614401494902 11.787911584529278 88.60722643186767 1 1 0
4788 1596 2 -0.35 5.505579476239345 10.84195961938384 90.61570921031421 1 1 0
585 195 2 -0.35 7.636358923275525 16.21650709816696 84.42305262426619 0 1 0
1355 452 2 -0.35 4.181937249822498 17.451494212061764 81.24135176659922 -2 -3 1
3958 1320 1 0.7 5.738675617604346 14.762003395845673 86.61789300015018 1 1 0
583 195 1 0.7 8.469463335334979 17.00325833339538 84.47831689507014 0 1 0
1849 617 1 0.7 7.609312586090087 12.190750886854932 81.49701748788723 0 -3 0
3874 1292 1 0.7 8.01989725323781 17.27908396455683 89.0967147032817 1 2 0
3876 1292 2 -0.35 8.319364750683373 16.5592519059135 89.942550418031 1 2 0
1888 630 1 0.7 1.8762504482925504 19.152457260888124 85.37583868874252 1 -1 0
2273 758 2 -0.35 8.563495118980832 15.080607524391539 87.14864826125381 -1 1 0
3151 1051 1 0.7 0.5074589129424376 11.519988471530922 84.6776818239487 2 -1 0
2545 849 1 0.7 3.0375950066239317 14.714938225281486 90.01273054040246 1 -1 0
1218 406 2 -0.35 7.777402130435091 17.22151175106868 81.03357044843031 2 -5 0
5140 1714 1 0.7 4.443565100849102 17.571012414977602 91.51915839191346 -1 0 0
5141 1714 2 -0.35 5.176075302571982 17.646573192496227 90.62153834385005 -1 0 0
584 195 2 -0.35 9.232151050650062 17.839984363041232 84.56562541811408 0 1 0
2272 758 1 0.7 9.573137860638298 14.52667596524291 86.97809870228002 -1 1 0
716 239 2 -0.35 1.463682382518867 18.513421079021978 89.52888562995926 1 0 0
1971 657 2 -0.35 0.006682188548685118 16.770058880122455 91.30559021953471 -1 1 0
6517 2173 1 0.7 16.56250241839013 15.91364899600354 89.33092318446656 -1 0 0
5265 1755 2 -0.35 10.995410661219909 17.98352476395647 89.43550677698703 2 4 0
5263 1755 1 0.7 11.437438808645169 17.703878423784644 88.37990527128723 2 4 0
19 7 1 0.7 12.670491984310068 19.363311242963057 80.62946956609075 -2 3 0
2794 932 1 0.7 19.353267624715315 12.65417094034325 86.44722400682507 -1 4 0
2661 887 2 -0.35 10.406407887404342 10.906153390607594 91.0526274611876 0 0 0
3849 1283 2 -0.35 14.152974953076294 14.779625861931613 81.50962947819433 2 1 0
4355 1452 2 -0.35 15.8439499057217 16.43851645564894 84.2209894423845 0 -2 0
1820 607 2 -0.35 13.92903581204424 18.521251209450586 89.85335015836847 0 -1 0
159 53 2 -0.35 12.616242525061372 17.33562452308548 84.32877368765133 2 1 0
3847 1283 1 0.7 14.085290868962668 13.741348972194993 81.08242085397788 2 1 0
2944 982 1 0.7 10.878449296989697 16.180262064228728 81.2313858214429 -3 2 1
5765 1922 2 -0.35 15.523084695993763 19.733409498956345 82.59997322496511 2 1 0
128 43 2 -0.35 17.14697035649099 11.739665424416026 91.76962027049522 -2 2 0
2945 982 2 -0.35 10.13428613647893 15.699480047315282 81.96299433344072 -3 2 1
2795 932 2 -0.35 18.239444210866445 12.417031034456594 86.09834632011666 -1 4 0
786 262 2 -0.35 12.833715283979748 15.025504985254205 89.51379346697252 -1 1 0
5106 1702 2 -0.35 18.02464514943556 18.669003688287408 88.84003041792151 -2 2 1
619 207 1 0.7 18.47860533229845 14.945154405863958 82.73670027818294 -7 4 0
304 102 1 0.7 13.858975054786558 11.917776288542782 87.31747004525913 -2 -2 0
621 207 2 -0.35 17.67517996475495 15.084383416641627 81.91486720458427 -7 4 0
127 43 1 0.7 16.993518529496793 12.368456678006867 90.79648314456288 -2 2 0
5766 1922 2 -0.35 17.55529273615123 18.60330795897557 82.38202883733614 2 1 0
306 102 2 -0.35 13.18095130348453 12.177814278221302 88.242683905325 -2 -2 0
1821 607 2 -0.35 12.780857548714025 19.12388741511815 91.77406027579828 0 -1 0
158 53 2 -0.35 12.628711748547124 19.585025438461116 84.92498086754665 2 1 0
305 102 2 -0.35 14.486204624469355 11.53842110941162 86.44177423986496 -2 -2 0
3217 1073 1 0.7 16.028942072925062 11.672312865513488 83.15898328862828 3 8 1
21 7 2 -0.35 12.234937913201716 19.471572727937858 81.68152946372201 -2 3 0
4272 1424 2 -0.35 11.204964524981659 11.08374428869144 85.42462056865696 3 -1 0
3848 1283 2 -0.35 14.065242552650831 12.657604359516137 80.65433351970852 2 1 0
6261 2087 2 -0.35 16.02628542652851 19.421214350793285 85.82109820268673 0 1 0
157 53 1 0.7 12.583696296147533 18.460202764888447 84.63757809358283 2 1 0
129 43 2 -0.35 16.708335494710635 12.921474557612974 89.80157400421508 -2 2 0
4270 1424 1 0.7 11.138803125920214 11.52140133102476 84.35921119248404 3 -1 0
4271 1424 2 -0.35 11.180301731573369 11.937360092242468 83.26939389674166 3 -1 0
2274 758 2 -0.35 10.570626673281495 13.97723058777979 86.79072612859613 -1 1 0
3218 1073 2 -0.35 16.154531592013967 12.803065986682645 82.97389371393817 3 8 1
6518 2173 2 -0.35 16.50543698987352 15.690515176263 88.2149169969068 -1 0 0
5764 1922 1 0.7 16.54113236234246 19.191664359386063 82.466459386739 2 1 0
4356 1452 2 -0.35 14.325841887127737 14.845456672759452 84.94144967275513 0 -2 0
785 262 2 -0.35 12.656080009127226 13.484076515769567 91.21367515458898 -1 1 0
5264 1755 2 -0.35 11.741427235306421 17.339686273994225 87.30600313704596 2 4 0
1535 512 2 -0.35 9.848593786070492 14.04554351227464 90.0756821450388 4 4 0
6519 2173 2 -0.35 16.696146919820038 16.03511032794129 90.48085514515897 -1 0 0
3219 1073 2 -0.35 15.90530836527791 10.54462311614296 83.33323131540426 3 8 1
4354 1452 1 0.7 15.129702129632545 15.613304659940013 84.62563075851814 0 -2 0
1819 607 1 0.7 13.36363632084499 18.858836727938705 90.80369802654403 0 -1 0
784 262 1 0.7 12.743345785940088 14.259291058522551 90.36824443658496 -1 1 0
620 207 2 -0.35 19.29958299930259 14.864137056899684 83.56849094503238 -7 4 0
3548 1183 2 -0.35 16.800239296345175 19.01890820916661 91.73126992256371 0 1 0
3983 1328 2 -0.35 14.220516575413122 15.975712432118163 91.92246341807757 2 0 0
2946 982 2 -0.35 11.67213978731176 16.70922935593608 80.58324446723265 -3 2 1
6680 2227 2 -0.35 6.406821136139721 0.10186792142264522 98.14604988922679 -2 1 1
6081 2027 2 -0.35 6.344742420167373 7.949076394755266 95.8704120203251 -1 1 0
5947 1983 1 0.7 3.5434340796123682 2.9803464524908003 94.9877947026598 1 1 0