LAMMPS data file via write_data, version 29 Aug 2024, timestep = 200000, units = real

7050 atoms
2 atom types
4700 bonds
1 bond types
2350 angles
1 angle types

0 40 xlo xhi
0 40 ylo yhi
0 240 zlo zhi

Masses

1 12.0107
2 15.9994

Pair Coeffs # lj/cut/coul/long/omp

1 0.0536545 2.8
2 0.156989 3.05

Bond Coeffs # harmonic/omp

1 1028.27 1.16

Angle Coeffs # harmonic/omp

1 55.96 180

Atoms # full

1050 350 2 -0.35 14.488102064610223 7.024417330553328 33.17320583182143 1 -2 1
1048 350 1 0.7 13.368012532172443 7.250132764619925 33.04688926650315 1 -2 1
1049 350 2 -0.35 12.246450038516919 7.482626471610578 32.94147153219508 1 -2 1
1375 459 1 0.7 2.1187764745399114 11.35334742796429 30.354527418368594 -2 -1 1
1376 459 2 -0.35 1.2130623545044612 10.817211759837729 30.863613488775925 -2 -1 1
1377 459 2 -0.35 3.0366653295872363 11.924364489316975 29.84501556618215 -2 -1 1
5340 1780 2 -0.35 7.779873703577998 4.846262567492787 43.891813155538266 1 1 0
5338 1780 1 0.7 7.349729279380499 5.856331059901272 44.30606149295557 1 1 0
5339 1780 2 -0.35 6.958456982500642 6.855683724829071 44.743235772131825 1 1 0
4956 1652 2 -0.35 2.301473535022243 17.801225342430858 88.36262248900593 1 0 0
3633 1211 2 -0.35 7.69341747057477 10.82130488853985 46.60874867004412 1 0 0
867 289 2 -0.35 5.7634316727960035 2.8341176751790353 47.75374611494903 0 0 0
865 289 1 0.7 5.771569217366394 3.798305316742398 47.16601428390217 0 0 0
866 289 2 -0.35 5.78456562926187 4.821940513666564 46.635498160341456 0 0 0
3973 1325 1 0.7 2.888096467265081 9.758387439746505 45.73812903391977 1 0 0
98 33 2 -0.35 1.4343011154987215 4.111437123132795 51.94008730286765 1 1 0
6921 2307 2 -0.35 6.712677550043802 6.786062040094379 49.14991796791815 0 0 0
3974 1325 2 -0.35 3.2710568644946383 8.925294498405368 45.04859809822349 1 0 0
2465 822 2 -0.35 9.37633587648207 5.243598783321114 50.15203550995956 0 1 0
2464 822 1 0.7 10.117234491430445 6.05454601014785 50.56895090842444 0 1 0
5540 1847 2 -0.35 8.148351876223492 1.8109096453004503 51.71915308629436 1 1 0
5539 1847 1 0.7 8.789688818331026 1.636644950350127 50.78940299844417 1 1 0
97 33 1 0.7 2.2419669729707143 3.8016162804926754 51.184103632004856 1 1 0
3677 1226 2 -0.35 1.5164668085570434 2.3882941526811665 47.98792286368447 1 0 0
6919 2307 1 0.7 5.642590360072424 7.225934963204371 48.966216145924236 0 0 0
6920 2307 2 -0.35 4.567898636217112 7.660986629742084 48.879040372476844 0 0 0
417 139 2 -0.35 3.934828626548346 2.6827221629215336 53.23486096843233 0 0 0
415 139 1 0.7 4.402358672395669 1.5970750524505128 53.28978469343282 0 0 0
3676 1226 1 0.7 1.686565676670798 1.2902863389062666 47.709877384998116 1 0 0
3678 1226 2 -0.35 1.870661947374086 0.11817381818719774 47.55443813772408 1 0 0
142 48 1 0.7 10.17366588055323 4.096351115148994 54.85464651061362 0 0 0
144 48 2 -0.35 10.081419285580624 3.4242818795344823 53.918711713689476 0 0 0
99 33 2 -0.35 3.030766529525972 3.533897524467604 50.383912921027594 1 1 0
250 84 1 0.7 5.744118854401564 5.7298716262963065 52.34981112345681 1 0 0
252 84 2 -0.35 4.577949354785352 5.700909348596413 52.20123303346762 1 0 0
251 84 2 -0.35 6.8965539838743295 5.710747330258405 52.51767589959469 1 0 0
3537 1179 2 -0.35 5.538353466946496 8.463349706541594 51.71100459379951 1 0 0
5541 1847 2 -0.35 9.344285579807373 1.3057164613843362 49.85849145801232 1 1 0
416 139 2 -0.35 4.853321582606041 0.5164865399035278 53.313285220773466 0 0 0
4119 1373 2 -0.35 0.38718936091935785 4.836259660216496 54.599603960121435 1 0 0
3535 1179 1 0.7 5.572395092792441 9.424459136073814 52.37667355359156 1 0 0
767 256 2 -0.35 0.7448156777173511 8.329953292119741 47.09421937730123 0 0 0
3801 1267 2 -0.35 2.142035273182665 9.858912840283342 51.09633716368862 1 0 0
3799 1267 1 0.7 1.9547126297596809 8.809135588524276 50.65660160559945 1 0 0
4117 1373 1 0.7 0.8056431916793494 5.743557657757549 54.04614987475655 1 0 0
3939 1313 2 -0.35 9.006286102047675 0.3548073255096864 54.72006259617245 1 0 0
1954 652 1 0.7 8.978781748675143 9.84931265716329 50.99646083459342 0 1 0
1956 652 2 -0.35 9.316416521234718 9.227930968474809 50.11734198746309 0 1 0
4118 1373 2 -0.35 1.2475775753871454 6.629769086256929 53.45398281835553 1 0 0
1771 591 1 0.7 9.739674718519995 8.046313900929723 54.61361600232303 0 1 0
1772 591 2 -0.35 9.317158862902058 7.778899970564074 53.588008048438404 0 1 0
2466 822 2 -0.35 10.845409832744084 6.884313480377675 51.01426520264383 0 1 0
1962 654 2 -0.35 12.897343508178965 6.307736579932567 48.75428567039919 0 1 0
1960 654 1 0.7 12.088299656594472 6.646935823326401 48.02921693918176 0 1 0
5663 1888 2 -0.35 17.621673619021518 5.774010299822612 49.599817176097545 0 0 0
5662 1888 1 0.7 16.895556889038012 4.896290394777646 49.47563613921419 0 0 0
5664 1888 2 -0.35 16.206492981722814 3.973079726535498 49.39384643803653 0 0 0
5799 1933 2 -0.35 12.624402200907035 9.486055772370843 54.247398122315154 1 1 0
307 103 1 0.7 12.108573839261801 3.033518440830031 48.899951162907556 0 0 0
308 103 2 -0.35 11.361754207537134 3.864635703373982 48.528242024458855 0 0 0
171 57 2 -0.35 13.655775654354471 3.0695894637041006 53.583149368616354 0 0 0
169 57 1 0.7 13.275700062370836 3.4017910779652323 52.55758504828127 0 0 0
170 57 2 -0.35 13.005653007742577 3.7455773662152065 51.48943598183096 0 0 0
122 41 2 -0.35 13.35443603440308 8.945100418710787 51.099005667830916 0 0 0
121 41 1 0.7 14.150620942954792 8.093572868778281 50.99818090877483 0 0 0
5671 1891 1 0.7 18.940102140610065 1.2491387116318209 47.55822398068701 1 1 0
4954 1652 1 0.7 2.671959214999075 18.809103212573756 87.89674438813996 1 0 0
123 41 2 -0.35 14.97173833233908 7.2981975155013945 51.12293373669265 0 0 0
5673 1891 2 -0.35 17.831678592772413 1.0250230933028615 47.78655070205733 1 1 0
3645 1215 2 -0.35 19.426472999914488 2.49661077456377 50.32939155040605 0 0 0
447 149 2 -0.35 16.985947201630005 7.385317371573237 53.605728553256874 0 0 0
2011 671 1 0.7 17.120003907464852 0.6472321450847476 53.84587366408972 0 1 0
2012 671 2 -0.35 18.079105652829135 0.698217690172444 53.200104489244296 0 1 0
445 149 1 0.7 16.657569977067823 8.411797570346017 53.13702798704494 0 0 0
1961 654 2 -0.35 11.289716196981423 7.003834863278559 47.31169353092965 0 1 0
2013 671 2 -0.35 16.15843315696166 0.6683088629427548 54.46055309517698 0 1 0
309 103 2 -0.35 12.780256298630023 2.147377187585288 49.26595729300098 0 0 0
6951 2317 2 -0.35 12.8903159529244 0.26243486319158144 52.926775780491596 0 0 0
5469 1823 2 -0.35 15.366911318222982 0.12092519261192307 51.14530599836137 1 0 0
446 149 2 -0.35 16.2839123561789 9.417400443017122 52.67391697985723 0 0 0
2049 683 2 -0.35 12.725881969678426 6.231079407302513 54.05694501266751 0 0 0
2048 683 2 -0.35 14.73347813556201 6.374383549348455 55.18663259049138 0 0 0
2047 683 1 0.7 13.711370349364786 6.343546905371782 54.623344123057194 0 0 0
6949 2317 1 0.7 12.936626164474204 0.11442546114450958 54.063401720541556 0 0 0
3975 1325 2 -0.35 2.531997209151302 10.58378487713499 46.456882547591796 1 0 0
3536 1179 2 -0.35 5.598456840134331 10.390256052744553 53.03662640821207 1 0 0
504 168 2 -0.35 1.897635896156712 17.921963830883605 52.825670304041964 0 0 0
6930 2310 2 -0.35 3.702169314760231 12.669004751312913 49.332256321643456 -1 -1 0
2581 861 1 0.7 9.434776021971057 12.86450291230857 49.085030335137155 0 0 0
3632 1211 2 -0.35 5.44390664000309 10.262533308669632 46.64607654983927 1 0 0
3631 1211 1 0.7 6.563436133398857 10.585177318289157 46.597166618459966 1 0 0
3623 1208 2 -0.35 3.2087476799037495 12.484587565112639 53.211567718063066 1 0 0
3622 1208 1 0.7 3.883447366350282 13.275066103900475 52.75840324093234 1 0 0
3624 1208 2 -0.35 4.469132886595401 14.1577914008497 52.31064768740706 1 0 0
6928 2310 1 0.7 4.433116639923216 11.808574497717553 49.72139278133379 -1 -1 0
6929 2310 2 -0.35 5.221562227209046 11.0305059214531 50.06922696158218 -1 -1 0
502 168 1 0.7 2.832257894952386 17.88477778572964 52.159378669549966 0 0 0
2583 861 2 -0.35 8.584031574836908 12.096717496339027 49.13055658500204 0 0 0
2577 859 2 -0.35 5.18012541889282 15.555124535673777 48.388814220613924 1 1 0
1955 652 2 -0.35 8.508014017626962 10.46061431875124 51.88217790757939 0 1 0
3800 1267 2 -0.35 1.6021192409378986 7.778868017679059 50.20975505667097 1 0 0
32 11 2 -0.35 1.2776310206699324 13.484990889335975 50.98075778817343 1 0 0
4215 1405 2 -0.35 9.640822358534036 11.589080505328486 55.03927194519684 1 0 0
2575 859 1 0.7 4.127869830639234 15.646252753164658 48.89683733672821 1 1 0
5874 1958 2 -0.35 7.215911458177927 15.797324636333245 53.97142231280378 1 0 0
2576 859 2 -0.35 3.142984300832619 15.705588068098475 49.49124940964076 1 1 0
5872 1958 1 0.7 7.339509032744296 16.49147017174878 53.03000299076211 1 0 0
5873 1958 2 -0.35 7.418532948116541 17.00170978510646 51.980680317683245 1 0 0
4213 1405 1 0.7 9.44341707354817 12.370310872197328 54.195612115375155 1 0 0
2273 758 2 -0.35 8.432313926136798 15.669246065173619 47.811459926374155 0 0 0
2272 758 1 0.7 7.829202440284733 16.654853789546664 47.687582834972076 0 0 0
2274 758 2 -0.35 7.208545832670428 17.612493184146306 47.58478460392686 0 0 0
4214 1405 2 -0.35 9.086959768777168 13.05627298521635 53.30178809709988 1 0 0
410 137 2 -0.35 0.3622853454136735 12.678923325144854 46.95564440800164 0 0 0
503 168 2 -0.35 3.7745999831828403 17.822950117461435 51.48183899689474 0 0 0
31 11 1 0.7 1.0987793985070353 14.547072054936915 51.4129509747452 1 0 0
409 137 1 0.7 0.18405278744917453 11.830932260128238 47.72466339740109 0 0 0
6525 2175 2 -0.35 15.940835332946442 15.597612508219374 93.43200901915195 1 1 0
4046 1349 2 -0.35 10.287343401472079 18.586512582822916 45.55784093211756 1 0 0
4047 1349 2 -0.35 12.022525745962616 17.079382928818227 45.820834263311696 1 0 0
3836 1279 2 -0.35 14.405678377592254 8.829351637712461 48.00446603233905 0 0 0
3835 1279 1 0.7 15.332583959352588 9.489162475179578 48.25994736459748 0 0 0
3837 1279 2 -0.35 16.26202518578696 10.14967859250499 48.509013992309434 0 0 0
2582 861 2 -0.35 10.323647805203766 13.598141088535929 48.96997475398935 0 0 0
3566 1189 2 -0.35 10.352453270684844 17.713647789460985 50.19965398328241 1 0 0
3565 1189 1 0.7 11.299577050735902 17.047317439066433 50.41529099224278 1 0 0
3567 1189 2 -0.35 12.241617325324077 16.44820639056607 50.66987929736862 1 0 0
155 52 2 -0.35 15.170888031993918 17.831943483811713 52.33564358673911 0 0 0
154 52 1 0.7 14.771615764505237 16.801917852246703 52.65446535029347 0 0 0
156 52 2 -0.35 14.283834627802303 15.77259342759271 52.82283794063386 0 0 0
3573 1191 2 -0.35 14.961137021809034 12.723642214187901 51.466112797861435 1 0 0
3571 1191 1 0.7 15.385601438172095 13.743306218349424 51.14457890362658 1 0 0
3572 1191 2 -0.35 15.877257210826647 14.729236258320933 50.780150587312505 1 0 0
5544 1848 2 -0.35 10.053229227263472 17.10953479600693 53.54944001629953 1 0 0
5690 1897 2 -0.35 11.878253790925658 11.221961118543147 50.030661765616955 1 0 0
5689 1897 1 0.7 11.718443805401506 11.544077749401273 51.146720783982346 1 0 0
5542 1848 1 0.7 11.185998449823664 17.293555279623753 53.756837166323386 1 0 0
5691 1897 2 -0.35 11.708133604163853 11.76076288966228 52.307427226742305 1 0 0
3613 1205 1 0.7 19.49534136228429 10.347252430634818 51.50031628812306 0 0 0
2579 860 2 -0.35 15.24796726861471 0.5023266095912918 80.66882267663374 0 1 0
3615 1205 2 -0.35 19.054374403223786 11.333310990732484 51.953554838645694 0 0 0
288 96 2 -0.35 17.239270764792202 15.774757835961735 54.10508606850501 0 0 0
5543 1848 2 -0.35 12.315123769412304 17.442511758307617 53.940033199854696 1 0 0
6523 2175 1 0.7 16.356155144104044 15.006978140999225 92.5248335266427 1 1 0
3706 1236 1 0.7 0.5719782433946918 16.671003977088766 91.08943250167171 1 0 0
4045 1349 1 0.7 11.166490616214023 17.816974442529702 45.664383612616064 1 0 0
143 48 2 -0.35 10.123196554306928 4.8299363185155055 55.73220683946214 0 0 0
5939 1980 2 -0.35 8.548610124057625 0.10556484791103443 60.55223272053434 1 1 0
1773 591 2 -0.35 10.187316712888428 8.314674138096612 55.64686998443671 0 1 0
2116 706 1 0.7 0.9304086679082402 3.6991388650739143 58.56607230500797 0 1 0
2118 706 2 -0.35 0.6567604916885248 4.099070518336538 57.51627978902222 0 1 0
3876 1292 2 -0.35 4.601267492086112 1.947021443546608 60.34093727503353 1 0 0
3874 1292 1 0.7 4.129144279626127 2.6890718887306604 59.57091800751506 1 0 0
900 300 2 -0.35 3.7311541097415546 4.9775229852696 56.165169699324565 0 0 0
898 300 1 0.7 3.746915758835701 3.7918992876686297 56.10918329216134 0 0 0
899 300 2 -0.35 3.6552061171327432 2.6270214242329666 56.088162767190425 0 0 0
4141 1381 1 0.7 6.616679360517194 4.4137187277783 62.67251457205274 1 0 0
4143 1381 2 -0.35 6.21084491240894 3.8431678736183543 63.58365252904462 1 0 0
5938 1980 1 0.7 7.974878805474903 0.8926388008531718 61.243162538767514 1 1 0
5940 1980 2 -0.35 7.424853687822024 1.6087484001672536 61.98921158779454 1 1 0
2362 788 1 0.7 7.476056685827167 2.3121861204853595 57.88533010063248 0 1 0
5862 1954 2 -0.35 5.706688265037345 7.6322503580839545 54.89926399102461 1 0 0
425 142 2 -0.35 2.0876328709070253 8.217683107810283 58.746063862145554 0 0 0
5860 1954 1 0.7 5.318758144001848 7.747113768820286 55.96775677891296 1 0 0
5861 1954 2 -0.35 4.961267687288849 7.826015424245307 57.05864253969148 1 0 0
4142 1381 2 -0.35 7.048677712261347 4.939900782578723 61.716107932629484 1 0 0
712 238 1 0.7 8.011567240387755 5.876855020374946 57.857235547740785 0 0 0
714 238 2 -0.35 7.267836333394144 5.108567829796852 57.39978866401054 0 0 0
2363 788 2 -0.35 7.046583620506892 2.1672867398129236 56.81466867472725 0 1 0
3875 1292 2 -0.35 3.6949232109748213 3.495209460817137 58.85771026820294 1 0 0
2227 743 1 0.7 3.3005464465166567 1.6266773526922562 62.997054178275306 0 1 0
2229 743 2 -0.35 3.1394602625332513 2.739125016347479 62.78933285610406 0 1 0
2364 788 2 -0.35 7.856065265562395 2.4421985456900646 58.96850257570192 0 1 0
4166 1389 2 -0.35 5.00744743262195 6.018384884849164 59.70317789621079 1 0 0
713 238 2 -0.35 8.704583931740274 6.70123935065662 58.26552538738944 0 0 0
6897 2299 2 -0.35 2.8499365095038076 10.152221584739626 55.1594527916262 0 2 0
4165 1389 1 0.7 5.540822868525998 7.029326595274304 59.7699376897386 1 0 0
2525 842 2 -0.35 11.110011205028394 6.008529893649756 61.092933499819814 0 1 0
6027 2009 2 -0.35 9.04443694048578 8.512024645076604 61.84541616126608 1 1 0
424 142 1 0.7 1.3777179881985133 7.362351004904384 59.06561070567354 0 0 0
6025 2009 1 0.7 7.992869883529828 8.852501235646535 62.12465410508702 1 1 0
2145 715 2 -0.35 7.96284785384054 9.110429009442475 56.94602665889378 0 0 0
2117 706 2 -0.35 1.0927753757561176 3.12729718945345 59.55928044821896 0 1 0
312 104 2 -0.35 0.8796405825668998 0.36484425830427875 61.47484965028582 0 0 0
6026 2009 2 -0.35 6.974971052552026 9.323873099586205 62.403645492973894 1 1 0
4167 1389 2 -0.35 6.102322413457024 8.01225420393215 59.77857467565797 1 0 0
2143 715 1 0.7 8.613919690303316 9.909396334033683 57.521153165529064 0 0 0
3971 1324 2 -0.35 4.396535246913539 6.035673378488024 63.036909121847216 1 0 0
2578 860 1 0.7 16.23231488499064 0.5591744887496265 79.9990194022046 0 1 0
2228 743 2 -0.35 3.45729181337864 0.48698615387609384 63.19763270059377 0 1 0
426 142 2 -0.35 0.6431558388732216 6.4999771292081485 59.3472265555352 0 0 0
4139 1380 2 -0.35 0.7254377369524534 5.949873711484197 62.43101063418129 1 0 0
6041 2014 2 -0.35 13.043660675206157 1.1667875103921939 62.74712600169256 1 1 0
902 301 2 -0.35 18.888229561152468 9.37411786390166 54.71469753948408 0 0 0
720 240 2 -0.35 16.308532520175948 2.4260246575296325 63.07230244404201 0 0 0
4259 1420 2 -0.35 17.59877941395164 5.602588639139374 56.888579255109825 1 0 0
496 166 1 0.7 16.785942163650596 2.618603883401236 59.61703736709093 0 0 0
498 166 2 -0.35 17.868334410632624 2.6694917420181503 59.83984033595697 0 0 0
497 166 2 -0.35 15.650328680520557 2.5533449085964977 59.45978773165288 0 0 0
4258 1420 1 0.7 17.283552305490353 5.003424856585984 55.92909552790739 1 0 0
708 236 2 -0.35 15.731456559140772 5.402948224144605 61.27875625933323 0 0 0
4260 1420 2 -0.35 17.046280027644684 4.336329228332246 54.97472866412542 1 0 0
125 42 2 -0.35 10.996093324975254 1.4746643877669439 57.641611111562 0 0 0
3540 1180 2 -0.35 11.767702476151552 8.703005735293877 59.1340910176162 1 0 0
3539 1180 2 -0.35 12.9701576696203 8.451725854783515 57.13643387404044 1 0 0
3538 1180 1 0.7 12.385706852534158 8.538311572501705 58.14370692222262 1 0 0
5659 1887 1 0.7 16.846159748227414 8.27947999441364 58.73750630870195 1 1 0
5660 1887 2 -0.35 17.91306137364647 8.677873332919365 58.634472403232934 1 1 0
3813 1271 2 -0.35 12.935688353189345 4.5529157489589 62.87326456956629 1 0 0
3811 1271 1 0.7 13.271279519378858 5.3587877616783866 63.6495241199433 1 0 0
5661 1887 2 -0.35 15.7783984137943 7.792580459770964 58.878135328827696 1 1 0
3812 1271 2 -0.35 13.735065911609164 6.104641512416425 64.44408677950744 1 0 0
782 261 2 -0.35 13.526256108368342 4.082761114940164 57.040636753537534 0 0 0
781 261 1 0.7 13.523113374127764 4.62327417866584 58.05458124073303 0 0 0
839 280 2 -0.35 13.649860860213682 8.24001447435085 61.80212020518919 0 0 0
783 261 2 -0.35 13.550975494082449 5.084145380251607 59.10688930789068 0 0 0
719 240 2 -0.35 16.401799057452155 0.3533187192698357 62.11111743958463 0 0 0
718 240 1 0.7 16.360848522239127 1.3810507041705045 62.61776726819843 0 0 0
2524 842 1 0.7 10.808649844344869 5.470936842413188 60.09075888183463 0 1 0
2526 842 2 -0.35 10.557339602770169 4.979951056200791 59.09212063143364 0 1 0
707 236 2 -0.35 16.753918278183622 7.424914770949541 61.86028642765933 0 0 0
706 236 1 0.7 16.25647926153149 6.3782718267919165 61.64155571079276 0 0 0
124 42 1 0.7 11.649761924392823 0.7252569355322286 58.20346918478125 0 0 0
6042 2014 2 -0.35 11.219869528156321 2.052943734237704 61.65101031715109 1 1 0
2329 777 1 0.7 19.447153506196024 4.4395400116048105 87.34545300223702 0 0 0
2324 775 2 -0.35 15.378765446078205 19.22664394184027 79.78759669961762 0 0 0
6040 2014 1 0.7 12.12841201062207 1.6161026809664216 62.18131923990155 1 1 0
2144 715 2 -0.35 9.35544226148506 10.684055973610336 58.01578485014397 0 0 0
5574 1858 2 -0.35 16.93271957640919 9.862653093066402 64.30447529782846 0 0 0
6524 2175 2 -0.35 16.78675991311843 14.40584134006482 91.61097246925776 1 1 0
2331 777 2 -0.35 18.929808021191555 3.847630225284147 88.19498051871189 0 0 0
3743 1248 2 -0.35 0.2101139098899566 17.428283600747086 58.660473698098805 1 0 0
6895 2299 1 0.7 1.7805709475670115 10.598608206869544 55.18037286880044 0 2 0
6896 2299 2 -0.35 0.703071796798979 11.01616833879677 55.21761448335964 0 2 0
3531 1177 2 -0.35 2.245823689729166 14.328824016508088 56.18219303160084 1 0 0
3529 1177 1 0.7 1.6038285025154233 14.268471627969072 55.206042625239306 1 0 0
3530 1177 2 -0.35 0.9111151177046473 14.084214801555666 54.30067726610227 1 0 0
5597 1866 2 -0.35 8.5784797195752 16.255277710988835 61.04605172781765 1 0 0
3580 1194 1 0.7 6.005019634033843 12.644957067112355 56.19237011591077 1 0 0
3581 1194 2 -0.35 7.066107234834966 12.355900880662116 56.51689326754502 1 0 0
3582 1194 2 -0.35 5.007743909251894 12.95568771994873 55.66473888796457 1 0 0
127 43 1 0.7 4.244770776844658 16.229195065042653 55.284699473659956 0 0 0
5596 1866 1 0.7 8.06419401050372 15.339573798286912 61.46480167462664 1 0 0
128 43 2 -0.35 4.876666465310205 16.381726622703567 56.26596276462104 0 0 0
5598 1866 2 -0.35 7.483295099181715 14.460744947015291 61.924263054436 1 0 0
5842 1948 1 0.7 5.815749661594873 10.799917098938126 60.33191129394654 0 0 0
3744 1248 2 -0.35 2.357628640269738 17.161728873284993 57.804003693222725 1 0 0
518 173 2 -0.35 3.1936779276383254 14.554143437332598 59.698407987365854 0 0 0
517 173 1 0.7 4.062896618333421 13.861699170099504 59.274221376526604 0 0 0
519 173 2 -0.35 5.035729950531359 13.254518153513464 58.95992777241263 0 0 0
4014 1338 2 -0.35 3.1880569153790272 18.417787446352474 62.76725050249385 1 0 0
4072 1358 1 0.7 1.1978267835904206 11.302410682420774 58.22977151737451 1 0 0
4073 1358 2 -0.35 2.2377726965840465 11.604240096608127 57.85715901279195 1 0 0
5843 1948 2 -0.35 6.8688368240488895 10.735693803596444 59.79863873811219 0 0 0
4315 1439 1 0.7 5.680011327653177 14.284289298208959 64.87407340380524 1 0 0
3742 1248 1 0.7 1.3015129952448627 17.268973233929103 58.217767877640064 1 0 0
129 43 2 -0.35 3.618886969587804 16.02084799900837 54.33936035892747 0 0 0
71 24 2 -0.35 5.058614171550748 17.682967419448076 60.046541699393885 0 -1 0
4002 1334 2 -0.35 8.721321168919903 17.837173112509717 93.60322173571436 1 -1 0
3754 1252 1 0.7 1.011289220898548 13.82014911008615 61.66979600189553 1 0 0
4012 1338 1 0.7 4.272532446998743 18.09122713357183 62.83720298509476 1 0 0
6062 2021 2 -0.35 5.984750267930491 18.771198081541108 54.867113034811005 1 0 0
6061 2021 1 0.7 6.941627314675318 19.08437301728187 55.47698752891102 1 0 0
2419 807 1 0.7 15.318374961045523 0.20880128047255653 75.78782312105426 0 1 0
3755 1252 2 -0.35 0.5032277567201858 13.369326958053176 60.70665019478339 1 0 0
4013 1338 2 -0.35 5.327736582919171 17.721485554643298 62.88298512780273 1 0 0
3522 1174 2 -0.35 9.405584097933382 14.769363138927112 56.062659010386675 1 0 0
3520 1174 1 0.7 9.447245244030409 14.38077162964698 57.14810484753313 1 0 0
5844 1948 2 -0.35 4.863253343878327 10.925322488680706 60.998937758293785 0 0 0
4074 1358 2 -0.35 0.11108479254394864 11.169210559800852 58.55819861255422 1 0 0
5717 1906 2 -0.35 9.569756621269308 11.567877540327379 61.309288244752985 1 0 0
3756 1252 2 -0.35 1.4533904545194642 14.342075875465978 62.65227245305994 1 0 0
4317 1439 2 -0.35 4.812174476646803 13.765913529495306 64.32916644857151 1 0 0
3521 1174 2 -0.35 9.569462555135368 13.911817352269475 58.194817127266816 1 0 0
3809 1270 2 -0.35 8.396510324539097 17.28486263871031 63.75212948271225 1 0 0
70 24 1 0.7 5.603491584530408 18.249848538513167 59.242504263908 0 -1 0
510 170 2 -0.35 18.558234277568268 15.962844067600548 63.40141650527562 0 0 0
609 203 2 -0.35 16.00612694447949 9.896997968044143 55.955979233398985 0 0 0
5797 1933 1 0.7 12.478643858685407 10.238923063386554 55.140578400489346 1 1 0
5572 1858 1 0.7 17.567017433908948 10.121291654686818 63.39530954389884 0 0 0
287 96 2 -0.35 18.27143749731551 17.42078608173513 55.32954537014355 0 0 0
607 203 1 0.7 16.783471566670833 10.758626301838063 55.94631509382072 0 0 0
886 296 1 0.7 10.59690162771824 19.13855480986269 61.630702359877425 0 0 0
5798 1933 2 -0.35 12.303979634385689 11.024249910327821 55.95952926451843 1 1 0
5573 1858 2 -0.35 18.229581188466618 10.39072108803527 62.49445327411894 0 0 0
286 96 1 0.7 17.731085001732186 16.615647547071177 54.70497071465538 0 0 0
838 280 1 0.7 12.753889543832846 8.951380960799167 62.03423366737115 0 0 0
5716 1906 1 0.7 10.37819447470915 12.229010267281236 61.81757461181067 1 0 0
5718 1906 2 -0.35 11.200863412592142 12.89868317890444 62.2947700582468 1 0 0
38 13 2 -0.35 14.734905691071681 13.03260593339508 56.24473674136609 0 0 0
840 280 2 -0.35 11.799311671272832 9.631422611593084 62.08014251810184 0 0 0
37 13 1 0.7 13.727982083142134 13.411211017441438 55.87377242065222 0 0 0
3647 1216 2 -0.35 13.206958384998057 12.034210629316416 59.271171819858786 1 0 0
887 296 2 -0.35 10.748400191280194 18.7358751273364 60.54416766223538 0 0 0
39 13 2 -0.35 12.70713667056496 13.838682993469826 55.53882639109673 0 0 0
3648 1216 2 -0.35 15.325635805085746 11.090186867683098 59.58112648577375 1 0 0
3646 1216 1 0.7 14.29291106778396 11.565441403048025 59.374397771107375 1 0 0
608 203 2 -0.35 17.534766335049607 11.646947880186229 55.938004199159636 0 0 0
161 54 2 -0.35 15.965499523451665 15.072139203476738 59.58675646847049 0 0 0
3448 1150 1 0.7 18.86066056570527 12.74924958580053 60.67632755962282 0 0 0
807 269 2 -0.35 15.114033881179118 15.301330559449806 63.01916698453619 0 0 0
805 269 1 0.7 14.23475941963791 15.554438978150555 62.277309136830944 0 0 0
806 269 2 -0.35 13.366036629247196 15.745061368906226 61.522045659338424 0 0 0
3449 1150 2 -0.35 19.572800882452 13.256915027354257 61.412058387492515 0 0 0
160 54 1 0.7 16.340302057552584 15.929350966697564 58.90862643214797 0 0 0
3450 1150 2 -0.35 18.1856991750959 12.221436717337815 59.86349212955492 0 0 0
162 54 2 -0.35 16.68639716058913 16.88300273298301 58.36860346367242 0 0 0
509 170 2 -0.35 18.442911644664058 16.062531576763583 61.06919147402948 0 0 0
2523 841 2 -0.35 12.876769854133652 16.15887382171749 58.244886086819676 0 0 0
508 170 1 0.7 18.478671917314415 16.028722935946465 62.239168851521256 0 0 0
2372 791 2 -0.35 14.26514431588216 18.721077132773832 61.37305681020359 0 0 0
486 162 2 -0.35 0.07119047417386645 10.321382638621717 72.43693140351218 0 0 0
2521 841 1 0.7 11.774662232283262 16.38904843948027 58.45313339870122 0 0 0
2522 841 2 -0.35 10.656494696290515 16.61698992294432 58.709589196000934 0 0 0
178 60 1 0.7 19.038423497776346 14.030110023123079 56.304908342477646 0 0 0
5977 1993 1 0.7 14.558741979104946 18.177757026727924 56.51833387088741 0 -1 0
5978 1993 2 -0.35 15.261479787545213 17.58253388565005 55.81528802006977 0 -1 0
581 194 2 -0.35 14.515795022455025 11.43924311732935 62.486561852502646 0 0 0
179 60 2 -0.35 18.32803543795931 14.694179981699566 57.01240537737558 0 0 0
2248 750 1 0.7 9.660955576152116 19.195860736952426 76.46418947070543 0 0 0
4000 1334 1 0.7 9.531465811295867 18.587816275765125 93.26344470180179 1 -1 0
6033 2011 2 -0.35 5.524868236017148 17.74055744292289 92.31051370412064 0 0 0
3972 1324 2 -0.35 2.9034369834400318 5.420964615511124 64.68138940098027 1 0 0
3970 1324 1 0.7 3.633029402255794 5.723725472455601 63.833214694332696 1 0 0
4274 1425 2 -0.35 1.475951182758779 8.196123954886538 64.65589734505545 1 0 0
4273 1425 1 0.7 1.197734665254744 9.29193099806131 64.96451319756571 1 0 0
2085 695 2 -0.35 7.1311641723595365 7.329923122834629 64.83456005272453 0 1 0
297 99 2 -0.35 7.3508997689614635 1.9225013571054095 65.4304271934092 0 0 0
2083 695 1 0.7 7.042641799554017 6.703249377933837 65.82245917127177 0 1 0
4327 1443 1 0.7 0.8292838193409822 2.4546613702554847 66.51522571523066 1 0 0
2416 806 1 0.7 3.568155603925769 3.9279462815636856 69.34422057345851 0 1 0
5702 1901 2 -0.35 7.06076927782692 5.103124378665159 71.93418894062232 1 1 0
4329 1443 2 -0.35 1.3217272179848936 2.507388595854865 65.4864875274106 1 0 0
5701 1901 1 0.7 6.522842875470927 6.005595204183831 71.47788526464016 1 1 0
5703 1901 2 -0.35 6.047404104648266 6.957958315374037 71.03385652009645 1 1 0
681 227 2 -0.35 4.005329238866183 7.689399352608575 66.38314648976531 0 0 0
679 227 1 0.7 3.072600613073777 7.174787255170156 66.85957769496358 0 0 0
680 227 2 -0.35 2.09214118383801 6.701432278966548 67.30343680111284 0 0 0
4199 1400 2 -0.35 9.811214240384514 7.301716633006113 71.7818091580114 1 0 0
5246 1749 2 -0.35 4.457170590430597 2.3498893428630576 65.44950172151093 1 1 0
2538 846 2 -0.35 10.568858582760242 5.773402638377888 65.77730918807023 0 1 0
1789 597 1 0.7 7.77546922071242 2.2456881816583856 68.72935273058063 0 1 0
1790 597 2 -0.35 8.887769002955126 1.9018752642603654 68.95257464617266 0 1 0
2084 695 2 -0.35 6.962684276086665 6.037101688359781 66.77346591069536 0 1 0
5375 1792 2 -0.35 1.8600046157473842 2.4603876569254126 70.85141840907517 1 1 0
5374 1792 1 0.7 2.43380344235478 1.6962591725952214 71.47076725313538 1 1 0
2485 829 1 0.7 6.593687212817337 0.46207132462416245 72.54432689564219 0 1 0
5245 1749 1 0.7 4.744872615125864 3.3415357378034978 65.98249367621143 1 1 0
2417 806 2 -0.35 2.838903078861704 3.7492954534007428 68.48696227866759 0 1 0
2487 829 2 -0.35 7.060705415607 0.8070029100049869 71.57879738417408 0 1 0
5247 1749 2 -0.35 4.973321399075367 4.333994727688111 66.53907448181415 1 1 0
1791 597 2 -0.35 6.722185892728438 2.595543110808996 68.4232568318481 0 1 0
3777 1259 2 -0.35 1.3056318598801442 5.8273707757554245 70.18475217282379 1 0 0
3775 1259 1 0.7 2.303549336836369 6.1753051208345315 70.74130590690687 1 0 0
2418 806 2 -0.35 4.393166104496576 4.06309616705059 70.1405664066369 0 1 0
2486 829 2 -0.35 6.066885219496173 0.15568683277726697 73.50902773686244 0 1 0
623 208 2 -0.35 1.60226895060964 9.554983314652215 67.80355707854655 0 0 0
3776 1259 2 -0.35 3.275987303287764 6.474797622240574 71.30129641444672 1 0 0
4328 1443 2 -0.35 0.3708699762436115 2.3598283249974075 67.59858319925551 1 0 0
5361 1787 2 -0.35 8.644449896607878 6.325382004308474 69.2126379849659 1 1 0
295 99 1 0.7 6.760141527725615 1.0197549515095656 65.01360210290632 0 0 0
5529 1843 2 -0.35 16.974333991203856 3.8808900082547337 66.63945970551136 1 0 0
4198 1400 1 0.7 10.505072104634714 7.204677757207043 72.70344096291572 1 0 0
5528 1843 2 -0.35 17.201358190577132 5.5332537130172295 65.03652158769444 1 0 0
5359 1787 1 0.7 9.57439227917743 6.971479118124726 68.95898671396387 1 1 0
1860 620 2 -0.35 19.06707313908361 9.374294330573287 70.97454736028851 0 0 0
2536 846 1 0.7 10.20369015532311 5.355709743478969 64.73015376812312 0 1 0
6032 2011 2 -0.35 5.7438167646421086 15.576498916293012 93.22453522860557 0 0 0
2196 732 2 -0.35 14.815385881885287 0.9660394458522086 65.48634253865548 0 1 0
5360 1787 2 -0.35 10.480356325137102 7.602791432939125 68.57346868865423 1 1 0
4200 1400 2 -0.35 11.124279414101135 7.159954933523062 73.68290511296965 1 0 0
2537 846 2 -0.35 9.730661300042202 4.90573461107035 63.75489717580526 0 1 0
527 176 2 -0.35 13.162691940896314 3.7221745795946637 70.41103391534708 0 0 0
526 176 1 0.7 12.822049422451974 4.822341995755233 70.39859810805082 0 0 0
528 176 2 -0.35 12.522184539345274 5.957931665544377 70.37776837147213 0 0 0
1779 593 2 -0.35 17.40147640843869 2.1889014210047635 69.63769398282844 0 1 0
2195 732 2 -0.35 13.780064040463401 3.077560789599037 65.62839914111865 0 1 0
1777 593 1 0.7 16.376354714864988 2.1082066350316966 69.0856343422293 0 1 0
1778 593 2 -0.35 15.330774983785197 2.1078157832285345 68.59541826752024 0 1 0
2194 732 1 0.7 14.274165537957526 2.0069896160429983 65.58834025582681 0 1 0
1780 594 1 0.7 14.26489026918155 8.72937965884843 68.84819392330316 0 1 0