LAMMPS data file via write_data, version 29 Aug 2024, timestep = 0, units = real

7050 atoms
2 atom types
4700 bonds
1 bond types
2350 angles
1 angle types

0 40 xlo xhi
0 40 ylo yhi
0 240 zlo zhi

Masses

1 12.0107
2 15.9994

Pair Coeffs # lj/cut/coul/long/omp

1 0.0536545 2.8
2 0.156989 3.05

Bond Coeffs # harmonic/omp

1 1028.27 1.16

Angle Coeffs # harmonic/omp

1 55.96 180

Atoms # full

6898 2300 1 0.7 12.35585012493325 16.76711602523123 9.577287559263235 0 0 0
6899 2300 2 -0.35 12.290735735235375 15.799097394566186 10.213121582715498 0 0 0
6900 2300 2 -0.35 12.421245712711519 17.734969398569813 8.94120648647977 0 0 0
6895 2299 1 0.7 16.2983288931576 8.679730967360507 31.839736890891242 0 0 0
6896 2299 2 -0.35 15.905914517423223 7.843065719651021 32.54178377973134 0 0 0
6913 2305 1 0.7 18.271450859932457 5.728555854862911 32.905436413495536 0 0 0
6914 2305 2 -0.35 18.662602594930036 6.566525238916581 32.20423834874158 0 0 0
6915 2305 2 -0.35 17.88392315386778 4.889279605115738 33.60598279992718 0 0 0
6897 2299 2 -0.35 16.687225427591038 9.517651295120015 31.138321375279695 0 0 0
6916 2306 1 0.7 7.606670940352764 1.0359997416410873 46.710345751816114 0 0 0
6917 2306 2 -0.35 6.587322249356128 0.7727983484080574 47.197161415339444 0 0 0
6918 2306 2 -0.35 8.626281793602892 1.2991599927506121 46.223003773273255 0 0 0
6903 2301 2 -0.35 10.754866219511246 0.821088289775969 43.8701044388418 0 0 0
6901 2301 1 0.7 11.142541275129053 1.6359360564059688 44.599636059261655 0 0 0
6902 2301 2 -0.35 11.540559657734573 2.45149915046101 45.32264294308505 0 0 0
6912 2304 2 -0.35 1.1475280126410263 16.041760678096892 48.60536958126712 0 0 0
6910 2304 1 0.7 1.2508588561123755 16.465272022937086 47.530359822287366 0 0 0
6911 2304 2 -0.35 1.3543618528426882 16.88878113056738 46.4553634188848 0 0 0
37 13 1 0.7 2.9604225681146428 6.01605036859472 84.07902122782129 0 0 0
38 13 2 -0.35 3.2500677465452226 4.892792828657615 84.11454311986017 0 0 0
39 13 2 -0.35 2.6613970772616717 7.136723024286076 84.02496862164776 0 0 0
130 44 1 0.7 3.096842577423871 1.7265682363218955 84.94179233805399 0 0 0
132 44 2 -0.35 4.219123605346186 2.0206154807061756 84.98787992551713 0 0 0
870 290 2 -0.35 7.865834904919601 6.905398432978563 83.57559656860343 0 0 0
131 44 2 -0.35 1.9765999967020003 1.423029092889423 84.89178766864083 0 0 0
749 250 2 -0.35 2.308278080121478 3.3541202878551295 87.20683646208164 0 0 0
868 290 1 0.7 6.9069278233022855 6.676001738997397 84.18829846918798 0 0 0
869 290 2 -0.35 5.945084994152248 6.440438073793674 84.79492885252584 0 0 0
468 156 2 -0.35 6.966814464535519 3.5455409954278543 85.77952149069017 0 0 0
466 156 1 0.7 6.240325798315154 3.396650397199434 86.67228366596666 0 0 0
328 110 1 0.7 8.445063755921916 8.413180136422588 87.14554566538497 0 0 0
330 110 2 -0.35 7.692754052488335 8.733230760633575 86.3218841135862 0 0 0
6919 2307 1 0.7 2.257304713381786 10.255822365859558 83.84872635525771 0 0 0
645 215 2 -0.35 3.3616168398487645 6.246961894275984 86.97614219544297 0 0 0
643 215 1 0.7 4.425821860557357 6.281004829064586 87.43729164216637 0 0 0
467 156 2 -0.35 5.523440852635772 3.250704529053881 87.57385245898212 0 0 0
3719 1240 2 -0.35 1.1123470868267624 9.09359488763574 86.63646534719719 1 0 0
239 80 2 -0.35 6.712512876135936 0.5106570316757117 86.1714738523366 0 0 0
6921 2307 2 -0.35 3.3923835656876866 10.452084222829752 83.99229764908705 0 0 0
213 71 2 -0.35 9.121162576769832 5.682970045691059 86.06705399927667 0 0 0
2465 822 2 -0.35 0.3931704174250479 0.8473716755877664 87.72716203494925 0 1 0
3666 1222 2 -0.35 0.3968125696124228 5.433873093808768 85.614365721801 1 0 0
883 295 1 0.7 17.81824709233914 5.680805625600995 84.16915525246496 0 0 0
773 258 2 -0.35 15.963669358979695 1.6736424558665133 83.5954236221605 0 0 0
741 247 2 -0.35 14.08980152975544 6.12639604962669 84.78368273334239 0 0 0
739 247 1 0.7 12.999365633010758 6.035430160501846 84.39773951158311 0 0 0
816 272 2 -0.35 14.866372538744175 6.754180795773704 87.7041561948625 0 0 0
814 272 1 0.7 15.739966188889396 6.137805346583717 87.25146802055843 0 0 0
774 258 2 -0.35 15.92111518816732 2.746763266386796 85.65266566321644 0 0 0
772 258 1 0.7 15.948298298802618 2.216597464660776 84.62072002085075 0 0 0
103 35 1 0.7 11.875958991639406 2.7512336343884254 83.534783025391 0 0 0
104 35 2 -0.35 10.811301781879115 2.469392283645109 83.17164916656671 0 0 0
105 35 2 -0.35 12.940567388748192 3.045489143347257 83.8947922854759 0 0 0
740 247 2 -0.35 11.910789116236867 5.941371867058009 84.00600580255893 0 0 0
665 222 2 -0.35 16.257018353842014 8.60902770539838 85.36748461530074 0 0 0
273 91 2 -0.35 13.357467474542915 9.942340585058435 85.30270077490812 0 0 0
815 272 2 -0.35 16.61720080742751 5.523799182225858 86.80407590983616 0 0 0
199 67 1 0.7 13.321275239563432 2.7845908695579498 87.02317709155962 0 0 0
200 67 2 -0.35 13.12319930017841 1.7204287820516535 86.60344998511546 0 0 0
211 71 1 0.7 9.857501538950434 4.785343504279882 86.07038352681509 0 0 0
212 71 2 -0.35 10.597006853455882 3.8899320067325105 86.0771921913139 0 0 0
257 86 2 -0.35 11.865337092973514 6.716871372861853 87.07768955769386 0 0 0
884 295 2 -0.35 17.130843455411338 4.86450420312024 83.71330897639409 0 0 0
3977 1326 2 -0.35 17.792679500374714 0.22980236885293465 86.0496686604409 0 0 0
849 283 2 -0.35 10.359814957787158 8.797818928750832 84.76604296306374 0 0 0
6920 2307 2 -0.35 1.1224994741839691 10.0666395712622 83.69866964023741 0 0 0
3603 1201 2 -0.35 0.07981261020253604 13.097446463159415 88.39679896401901 1 0 0
70 24 1 0.7 4.998455473666693 10.12866217647794 86.52422071544017 0 0 0
308 103 2 -0.35 6.307618412046628 18.721251845674892 85.91065282309518 0 0 0
692 231 2 -0.35 5.215436386250511 16.791220763170276 83.62164763317159 0 0 0
3624 1208 2 -0.35 2.332609843126002 17.031118891374696 85.05232811814064 1 0 0
744 248 2 -0.35 8.971463549866288 14.588236410252794 87.02693053907154 0 0 0
742 248 1 0.7 8.242280492593236 15.459273173508382 87.26749141869298 0 0 0
684 228 2 -0.35 6.481600912903872 14.304728911121359 85.21736314957072 0 0 0
683 228 2 -0.35 4.206246129034393 13.949517524958509 84.92120042616199 0 0 0
682 228 1 0.7 5.344350193362643 14.129726081675244 85.06458822322233 0 0 0
219 73 2 -0.35 8.94020254644515 17.43573008385094 84.57684962305761 0 0 0
235 79 1 0.7 6.33302133401159 10.683501692536916 83.45203300586053 0 0 0
236 79 2 -0.35 6.412740709447314 11.824729923596498 83.25693929227147 0 0 0
237 79 2 -0.35 6.253428020892164 9.54318738834068 83.65220906538073 0 0 0
72 24 2 -0.35 5.366698266211605 11.223668646005384 86.4066454641571 0 0 0
3622 1208 1 0.7 1.8524056529595951 16.22967124226344 85.74138143413649 1 0 0
210 70 2 -0.35 4.443708847978344 16.07088454075243 87.20501956806503 0 0 0
507 169 2 -0.35 3.137849867247307 13.343300092464673 87.95439478771905 0 0 0
506 169 2 -0.35 2.1009649106518355 12.052592433755336 86.32490345873859 0 0 0
505 169 1 0.7 2.610984506258239 12.701312053898604 87.14194702404468 0 0 0
743 248 2 -0.35 7.518297690645285 16.33397780952747 87.51218759760603 0 0 0
3623 1208 2 -0.35 1.3664249831016286 15.424075212993266 86.42162904662005 1 0 0
691 231 1 0.7 4.789951273043226 17.867473549881957 83.5309434776509 0 0 0
412 138 1 0.7 9.389643931932525 11.738867747670616 88.19743094729913 0 0 0
217 73 1 0.7 8.339541655863455 18.142621969571202 83.87877515498839 0 0 0
726 242 2 -0.35 8.910982860166062 11.921603952583732 85.17406333821887 0 0 0
848 283 2 -0.35 9.286799917206986 9.769864624810653 82.95167561009762 0 0 0
847 283 1 0.7 9.81805501132256 9.274080126098678 83.85641556938127 0 0 0
271 91 1 0.7 12.70626693175368 9.898726468457777 86.26216703907352 0 0 0
272 91 2 -0.35 12.05701966091114 9.83570484276118 87.22209372126966 0 0 0
664 222 1 0.7 16.29807439256901 9.769039179826205 85.39151017160621 0 0 0
79 27 1 0.7 15.867997194466863 13.743038211795266 84.37408093929764 0 0 0
80 27 2 -0.35 15.220524478375774 13.946099763659634 85.31653304633431 0 0 0
81 27 2 -0.35 16.51161386849652 13.536831529954911 83.430883732079 0 0 0
725 242 2 -0.35 9.43139062822872 13.855936624634252 83.99989539452228 0 0 0
724 242 1 0.7 9.16281865022055 12.893150546422696 84.58914197459907 0 0 0
666 222 2 -0.35 16.342064821282804 10.929147246960554 85.41840659214388 0 0 0
633 211 2 -0.35 16.213511440785446 18.437231993069933 83.75717490624245 0 0 0
632 211 2 -0.35 14.857406613687868 16.568182282249683 83.51351630356179 0 0 0
631 211 1 0.7 15.5281645200274 17.50771713065285 83.63910034260665 0 0 0
480 160 2 -0.35 12.031572012207969 12.848920120783426 85.60197080827275 0 0 0
479 160 2 -0.35 12.38396646221591 14.889080890317388 86.6541855695969 0 0 0
478 160 1 0.7 12.2115694175395 13.864595902671692 86.13548490195679 0 0 0
465 155 2 -0.35 15.049545551403696 17.37054244428863 86.5548278920808 0 0 0
651 217 2 -0.35 11.926473842110687 17.906454000858222 85.61687125055445 0 0 0
650 217 2 -0.35 10.41892754379267 17.304808943523046 87.27619185116909 0 0 0
649 217 1 0.7 11.17220616762222 17.599515097542536 86.4434650531263 0 0 0
414 138 2 -0.35 10.450243281320066 12.20996041599953 88.1827434522281 0 0 0
4154 1385 2 -0.35 17.74445851440981 15.969039914162813 85.02245293717648 0 0 0
750 250 2 -0.35 0.6299138581618768 4.188994632439333 88.5766171625217 0 0 0
748 250 1 0.7 1.4692804698466655 3.7784510820437913 87.8864643293012 0 0 0
71 24 2 -0.35 4.6203722524403465 9.039116763513613 86.64943009336342 0 0 0
722 241 2 -0.35 8.072643966714091 4.71921899634058 88.78110754920779 0 0 0
644 215 2 -0.35 5.485361065020515 6.298734738026189 87.91247282236368 0 0 0
230 77 2 -0.35 2.6980226415432336 8.101825454033067 89.49206492072364 0 0 0
253 85 1 0.7 6.864405062914486 2.2595367302395735 89.96964253577329 0 0 0
329 110 2 -0.35 9.199011269599692 8.097930129652532 87.96945867910415 0 0 0
387 129 2 -0.35 1.6162987439208338 1.9139050992844142 90.45696183994436 0 0 0
255 85 2 -0.35 7.3906487834810575 1.4903325911245282 89.27768804674716 0 0 0
629 210 2 -0.35 4.403885868191518 0.6223032549731129 90.22298587564421 0 0 0
790 264 1 0.7 0.9672165090676517 6.7246384697538195 91.50605535945434 0 0 0
723 241 2 -0.35 8.287403716275836 6.407214093401446 90.36008275463459 0 0 0
721 241 1 0.7 8.181829907335686 5.567405249329354 89.5664783347089 0 0 0
695 232 2 -0.35 1.5976106403587431 1.2078273906806103 94.31609292825881 0 0 0
694 232 1 0.7 1.277051412965509 0.17182151078409869 94.73084566275128 0 0 0
254 85 2 -0.35 6.350154790393335 3.030953813716649 90.66795612559173 0 0 0
312 104 2 -0.35 9.318075594182599 3.0041521555528767 91.36294387226819 0 0 0
417 139 2 -0.35 3.6123397884061337 4.584146803459367 89.84495979561807 0 0 0
416 139 2 -0.35 5.134587785107529 5.772615396951731 91.1350356797217 0 0 0
415 139 1 0.7 4.371223655244703 5.171609463365555 90.49908818512954 0 0 0
385 129 1 0.7 1.0218714288304007 2.6798636907152744 91.09563917698289 0 0 0
386 129 2 -0.35 0.41397978990506795 3.4439247012823455 91.72297623029887 0 0 0
792 264 2 -0.35 1.9781362522751145 6.243024358087118 91.81041166261251 0 0 0
177 59 2 -0.35 6.926505270309796 0.5157435057431761 92.29825262895997 0 0 0
175 59 1 0.7 6.02632525206815 0.4225319754186469 93.02589683311132 0 0 0
873 291 2 -0.35 7.174384030217188 7.383769119870861 93.26676834486676 0 0 0
310 104 1 0.7 9.111081463104759 2.677248771938647 92.45713865086296 0 0 0
311 104 2 -0.35 8.922598786033555 2.3449886536300775 93.5522119481665 0 0 0
297 99 2 -0.35 1.254298486295494 8.222990250125513 94.14508212727605 0 0 0
16 6 1 0.7 3.3913663751231646 3.467467355757223 93.88025433999485 0 0 0
17 6 2 -0.35 3.291497134828823 3.5383841454312788 95.03419872421145 0 0 0
18 6 2 -0.35 3.4858386476500787 3.3894642365146668 92.7258471383055 0 0 0
176 59 2 -0.35 5.121700610352219 0.33694635475538615 93.74863457484209 0 0 0
124 42 1 0.7 6.999558422854056 3.640297482516209 95.28477866636432 0 0 0
125 42 2 -0.35 6.276571318533678 3.6115379790874713 94.37661530907593 0 0 0
240 80 2 -0.35 6.998074674505628 0.48066304318014574 83.86780751239412 0 0 0
871 291 1 0.7 7.806016883219732 6.410652116100279 93.24492926683718 0 0 0
872 291 2 -0.35 8.428977374549312 5.429960463565179 93.2280234842202 0 0 0
265 89 1 0.7 4.209707425791569 7.518895225673173 93.31587494040996 0 0 0
266 89 2 -0.35 4.221572633414307 8.46212105037677 92.63836845179638 0 0 0
267 89 2 -0.35 4.197953987017948 6.577608221175245 93.99555488052205 0 0 0
295 99 1 0.7 0.49474146308020894 7.840765322242289 94.93529576814339 0 0 0
152 51 2 -0.35 6.398983204349922 8.861422792264733 89.54715110074136 0 0 0
630 210 2 -0.35 3.6492877733614555 0.48275156861703866 88.03103993596788 0 0 0
2117 706 2 -0.35 10.500448870609231 1.3330109338519924 88.67881277628173 0 1 0
737 246 2 -0.35 17.93168111546726 8.1133481925924 87.98190625793461 0 0 0
201 67 2 -0.35 13.506749582111622 3.853269823478127 87.43843043363907 0 0 0
251 84 2 -0.35 18.092289753105238 2.9685043784317737 88.15489333308572 0 0 0
256 86 1 0.7 12.043060230503482 7.074455930845833 88.16798491671614 0 0 0
33 11 2 -0.35 18.086538514702756 5.089404622273901 93.19487081185719 0 0 0
258 86 2 -0.35 12.229212762978088 7.436692806973557 89.25526008683391 0 0 0
780 260 2 -0.35 16.402555698373654 3.5725753264744546 91.10645126431378 0 0 0
779 260 2 -0.35 16.79652882111821 5.509823557325764 89.8906571060823 0 0 0
778 260 1 0.7 16.600284263556297 4.540718913552181 90.49711968710155 0 0 0
97 33 1 0.7 16.12597344545264 1.1767371592002485 89.45857516787028 0 0 0
98 33 2 -0.35 15.294717031397731 1.7221924005516365 88.85943967257961 0 0 0
99 33 2 -0.35 16.96065017880882 0.6416727935659212 90.0634984578157 0 0 0
560 187 2 -0.35 14.17499837075944 5.948683108199822 91.34334833926398 0 0 0
525 175 2 -0.35 11.12804038858969 4.59083505386089 89.30500068092626 0 0 0
524 175 2 -0.35 12.445208415611216 3.033441582597703 90.41368021589163 0 0 0
523 175 1 0.7 11.790482655510067 3.8163036060695537 89.86055084542109 0 0 0
461 154 2 -0.35 15.352673493185026 8.612007816275977 90.13578267383659 0 0 0
460 154 1 0.7 15.277432132710764 9.204084761499747 89.14044831937844 0 0 0
419 140 2 -0.35 18.37356385474068 7.671205685760452 91.57733412340221 0 0 0
418 140 1 0.7 18.191174164434493 8.71729608911783 91.10877599559147 0 0 0
2116 706 1 0.7 10.242817971064559 0.7048799237427126 89.6200066657042 0 1 0
807 269 2 -0.35 14.548426357585306 1.1781409343452691 91.98646936811113 0 0 0
2118 706 2 -0.35 9.98682307985407 0.08865616244029458 90.57046921622357 0 1 0
65 22 2 -0.35 15.944399153476832 3.9948922281336756 95.40293476212199 0 0 0
2017 673 1 0.7 11.056889452244105 0.36936016846487446 93.69296344666844 0 1 0
31 11 1 0.7 17.474212161042697 5.896759788217815 93.76176119878586 0 0 0
806 269 2 -0.35 14.009184241253818 3.043006415725348 93.25947969384491 0 0 0
805 269 1 0.7 14.27919397517956 2.1128723483836733 92.61974221100505 0 0 0
561 187 2 -0.35 13.241463616020987 7.897473305659508 92.19530223409488 0 0 0
559 187 1 0.7 13.704021402274998 6.922660380446759 91.76543313438282 0 0 0
137 46 2 -0.35 18.742902177086542 15.576018502890019 87.93017860049224 0 0 0
2018 673 2 -0.35 11.627036347846026 1.1009415781202683 92.99510750777002 0 1 0
32 11 2 -0.35 16.8508665459186 6.708939814251789 94.310277345731 0 0 0
836 279 2 -0.35 10.438835218711935 7.9189373801225225 93.57880972993364 0 0 0
835 279 1 0.7 10.790229172415351 9.012103605428736 93.40500456599949 0 0 0
714 238 2 -0.35 11.497794838552855 5.152438561492238 92.43889470426015 0 0 0
713 238 2 -0.35 11.2133893698267 4.124030805740444 94.49890328033472 0 0 0
712 238 1 0.7 11.368101826823878 4.645821105936959 93.47437119514099 0 0 0
704 235 2 -0.35 13.717873359329849 6.072251697667419 94.60756391547106 0 0 0
2012 671 2 -0.35 9.843651021071741 0.29162511494655136 85.59257604479964 0 1 0
782 261 2 -0.35 14.604997673469557 9.089442768061764 94.86895715012452 0 0 0
2169 723 2 -0.35 16.804181643488597 0.041448687388246655 93.57316418558561 0 1 0
781 261 1 0.7 15.33580212175292 9.279077410741332 93.98697255887276 0 0 0
783 261 2 -0.35 16.063119548130402 9.464731092523433 93.10160716360838 0 0 0
229 77 1 0.7 2.8037418494520057 9.206039448724916 89.14961926299657 0 0 0
231 77 2 -0.35 2.9256541443261845 10.31008163942269 88.81239298830549 0 0 0
498 166 2 -0.35 9.046807193551992 15.013640222523449 92.12123757916922 0 0 0
208 70 1 0.7 4.410602002621379 16.109910731329485 88.36529702794425 0 0 0
446 149 2 -0.35 6.211182862902991 13.668631212807378 88.3855892380105 0 0 0
445 149 1 0.7 5.8692499066184824 12.747116358688883 89.00345946399065 0 0 0
413 138 2 -0.35 8.335081467805571 11.252164278288205 88.20948964475522 0 0 0
846 282 2 -0.35 1.0988248962988396 18.695049071216054 91.83216967468007 0 0 0
2355 785 2 -0.35 2.2525330416741136 18.157446994642125 88.06167605809634 0 0 0
383 128 2 -0.35 8.815669261269846 18.1091797220226 93.235782396996 0 0 0
3 1 2 -0.35 7.563210711516401 15.53666069161287 95.14875464110477 0 0 0
786 262 2 -0.35 2.7605363064803674 13.975000348829578 91.1968553395975 0 0 0
785 262 2 -0.35 1.3646510027759955 15.425491846083373 90.03816980852486 0 0 0
784 262 1 0.7 2.059980029705691 14.701765592755985 90.62228630799031 0 0 0
151 51 1 0.7 6.918982245945376 9.388397036456153 90.44190933794528 0 0 0
153 51 2 -0.35 7.43627192982357 9.919403915813938 91.33476144586287 0 0 0
209 70 2 -0.35 4.377152521196363 16.151679471603806 89.52452516127458 0 0 0
602 201 2 -0.35 2.2535699001455183 10.850584835359498 91.77327704698794 0 0 0
601 201 1 0.7 3.287261444388983 11.208006970097006 92.1625317447579 0 0 0
222 74 2 -0.35 5.948893096233908 14.277038262065371 91.45804999124768 0 0 0
447 149 2 -0.35 5.520443519094305 11.821753890192026 89.61138559109935 0 0 0
250 84 1 0.7 18.602935670814226 3.3223138187391608 87.1736781869715 0 0 0
497 166 2 -0.35 8.714813810101617 13.461955070415724 90.42631938710687 0 0 0
496 166 1 0.7 8.882837471373833 14.240355904999612 91.27126385707155 0 0 0
745 249 1 0.7 8.60735416127156 18.5451314519717 89.35474861686309 0 0 0
287 96 2 -0.35 7.668690687475875 12.401416151482104 93.38923264794956 0 0 0
286 96 1 0.7 7.965385020693282 11.374209530217472 93.84253495527432 0 0 0
3718 1240 1 0.7 0.12465159742800325 9.683388919753906 86.47679658328559 1 0 0
288 96 2 -0.35 8.262700999622275 10.35003335538993 94.30189809059631 0 0 0
384 128 2 -0.35 6.75375521588258 17.17099362088916 92.72056134544913 0 0 0
603 201 2 -0.35 4.317778903175303 11.565946204405838 92.56051096886885 0 0 0
337 113 1 0.7 0.6334347281202019 16.34102505214626 93.83600315622215 0 0 0
339 113 2 -0.35 0.7285159048046365 15.444892215224108 93.10605201134716 0 0 0
746 249 2 -0.35 8.708569386696958 17.6142601567128 90.04141321557479 0 0 0
382 128 1 0.7 7.788683726331936 17.6340337748535 92.97355634839403 0 0 0
628 210 1 0.7 4.02391565145939 0.5513982587482971 89.12785251018418 0 0 0
669 223 2 -0.35 3.5858821170361566 10.411275662447206 95.27405623568194 0 0 0
238 80 1 0.7 6.853927168273011 0.5040049398825773 85.0184140551288 0 0 0
667 223 1 0.7 4.626243614621087 10.881056050612926 95.48251862435417 0 0 0
178 60 1 0.7 4.089443406515878 17.160361953280486 94.1596607084588 0 0 0
179 60 2 -0.35 4.675729536773635 17.25485502612777 95.15772209608473 0 0 0
180 60 2 -0.35 3.4890099480842713 17.063429904830762 93.17123943120238 0 0 0
220 74 1 0.7 5.4610961815842565 14.345021210583301 92.50838989695887 0 0 0
221 74 2 -0.35 4.981132784443114 14.418979251432765 93.56318481223914 0 0 0
141 47 2 -0.35 0.7469314542374144 4.911216544802629 94.38126938587217 0 0 0
313 105 1 0.7 16.015794980373084 18.067467898723645 91.92266162015744 0 0 0
491 164 2 -0.35 17.114209245083586 17.871473004382167 89.18319141523074 0 0 0
675 225 2 -0.35 11.256714588016848 15.122588090553066 89.6056432800248 0 0 0
678 226 2 -0.35 16.986788577732128 12.756761487601834 93.30552226710878 0 0 0
606 202 2 -0.35 18.340650616261534 15.955005388484098 95.53974078613334 0 0 0
766 256 1 0.7 15.426780311558115 14.910955361882312 90.93158597355936 0 0 0
462 154 2 -0.35 15.1982201510787 9.7888681266703 88.14057031233492 0 0 0
111 37 2 -0.35 14.220436485355837 12.648056553660885 87.97170653131563 0 0 0
463 155 1 0.7 15.153457308302846 16.495343882977348 87.30948081896103 0 0 0
109 37 1 0.7 15.377361377599797 12.726138403349873 88.03456996327944 0 0 0
110 37 2 -0.35 16.53432117939826 12.80658337025132 88.09791844236753 0 0 0
464 155 2 -0.35 15.258906846518776 15.615468767300941 88.05933268184198 0 0 0
490 164 1 0.7 18.136684354767933 18.364667948799976 88.94082748315081 0 0 0
865 289 1 0.7 15.526757661914155 16.283018511066754 94.85297022128766 0 0 0
673 225 1 0.7 11.995304348615385 15.99356746628052 89.3972121147654 0 0 0
473 158 2 -0.35 10.460034407282173 9.914668044159765 90.24157169749074 0 0 0
837 279 2 -0.35 11.141315247601254 10.103301505522529 93.22128101808512 0 0 0
676 226 1 0.7 17.79435912968178 12.693556634549559 94.13681109599986 0 0 0
767 256 2 -0.35 14.290738617860855 14.717679341736144 91.07314929197865 0 0 0
10 4 1 0.7 14.692931247127442 11.776432396452513 91.81227950867869 0 0 0
677 226 2 -0.35 18.596306173277906 12.633895839494588 94.9751497599934 0 0 0
420 140 2 -0.35 18.029455150353883 9.763716170218691 90.63469825378365 0 0 0
768 256 2 -0.35 16.56322109879319 15.105772869041088 90.79672634201737 0 0 0
472 158 1 0.7 11.593052936187522 10.166150935225085 90.22512247341321 0 0 0
314 105 2 -0.35 14.960529515380399 17.81764351190493 91.50897779930295 0 0 0
674 225 2 -0.35 12.731060222782594 16.86634205825235 89.18235953778273 0 0 0
885 295 2 -0.35 18.511894125330144 6.499055053300235 84.61412366368242 0 0 0
338 113 2 -0.35 0.5417374697339483 17.228375782017075 94.58014066277877 0 0 0
11 4 2 -0.35 15.33528517138836 11.836393014183702 90.84668660697388 0 0 0
474 158 2 -0.35 12.725568432771706 10.418999495137646 90.2126624575936 0 0 0
351 117 2 -0.35 11.602991461702052 16.8957216146963 92.0640729310418 0 0 0
349 117 1 0.7 12.168945255655714 16.795045037996807 93.07134771802698 0 0 0
867 289 2 -0.35 15.784150522869256 15.797722430495277 93.83027389889014 0 0 0
350 117 2 -0.35 12.744402915297472 16.703873435649324 94.07489662798633 0 0 0
12 4 2 -0.35 14.049955760344758 11.719300391646687 92.7772914841713 0 0 0
315 105 2 -0.35 17.07045565723623 18.30169109745024 92.34754105704533 0 0 0
307 103 1 0.7 5.931657524701122 18.744330401278475 87.00768127912619 0 0 0
809 270 2 -0.35 8.589360298702218 7.408924182398834 100.89559040249631 0 0 0
681 227 2 -0.35 5.143432734972652 4.288532233806239 104.6189071881652 0 0 0
680 227 2 -0.35 5.427429347789847 3.0224773735600423 106.54404337347178 0 0 0
679 227 1 0.7 5.281079610531765 3.6609678968598383 105.58625121695562 0 0 0
654 218 2 -0.35 5.677284565979535 2.586966636231292 101.81257818961463 0 0 0
653 218 2 -0.35 4.588219275414906 1.403126265544326 103.48568225838501 0 0 0
652 218 1 0.7 5.124404313758387 1.995520196878081 102.64391027191023 0 0 0
896 299 2 -0.35 8.499362881671056 3.1680695768313307 106.11594480116116 0 0 0
609 203 2 -0.35 6.871727674916837 8.835711554842256 103.33811707908326 0 0 0
608 203 2 -0.35 4.955070777599057 7.9674927191945075 104.31815671489925 0 0 0
607 203 1 0.7 5.913506166030263 8.40243101851743 103.82935164042664 0 0 0
558 186 2 -0.35 2.4959111829195786 6.208865905181402 104.94373689530688 0 0 0
557 186 2 -0.35 2.72095926461337 5.892807452222518 102.65421330676159 0 0 0
556 186 1 0.7 2.6092706499968417 6.051449315323338 103.79925235735053 0 0 0
528 176 2 -0.35 7.854044000167878 1.370024356792981 103.67129503673102 0 0 0
510 170 2 -0.35 6.197265622338938 5.7419002244856525 101.85561837245096 0 0 0
509 170 2 -0.35 7.8387925425284495 4.583920690113221 103.02022642582823 0 0 0
508 170 1 0.7 7.0204082413646605 5.163158389299154 102.4351255641381 0 0 0
423 141 2 -0.35 2.1930039645501838 3.1923912324273043 104.23869457357375 0 0 0
422 141 2 -0.35 1.3232905443636258 1.039453087935495 104.20141715226765 0 0 0
421 141 1 0.7 1.7560055052328327 2.1165094892768463 104.22511282489165 0 0 0
374 125 2 -0.35 6.393483567311526 6.191278836852208 106.87847775469628 0 0 0
728 243 2 -0.35 1.6883456373834902 7.637251022877037 99.96030446792884 0 0 0
526 176 1 0.7 8.939317934733412 1.7716722593643282 103.5697073938046 0 0 0
119 40 2 -0.35 2.1127050026222642 8.868344566187279 103.18694372388674 0 0 0
242 81 2 -0.35 4.463331547552745 8.307575618367386 101.25703695208728 0 0 0
727 243 1 0.7 0.7161308306422466 7.780915315696731 100.57857525635006 0 0 0
359 120 2 -0.35 3.9267849595117412 0.3075134453492693 100.54138280431037 0 0 0
881 294 2 -0.35 2.7711275616122353 3.1521593942126858 101.19687126564004 0 0 0
840 280 2 -0.35 8.317465713064788 1.3883971847888033 100.51389619690644 0 0 0
241 81 1 0.7 4.696446087229909 7.794181267043975 100.24232092503203 0 0 0
707 236 2 -0.35 6.368408253465328 3.8390706099825205 99.09368411329096 0 0 0
808 270 1 0.7 9.198714282434315 7.462520520402538 99.9090192967035 0 0 0
243 81 2 -0.35 4.938458570396744 7.298490679226434 99.22223542769738 0 0 0
708 236 2 -0.35 7.359146996640252 5.824950489081308 98.41092183985236 0 0 0
549 183 2 -0.35 18.10855616240275 0.7531591397618254 97.24527361166875 0 0 0
204 68 2 -0.35 0.15903044650864076 8.194453992559767 105.78640256385168 0 0 0
838 280 1 0.7 7.479701976115611 0.9468298299554182 99.84235483396826 0 0 0
880 294 1 0.7 3.0384237481155916 3.9749190208086618 100.4226821789522 0 0 0
866 289 2 -0.35 15.273540235373101 16.783703032212735 95.86885445955294 0 0 0
882 294 2 -0.35 3.3017761584016023 4.799405547062987 99.6498399998803 0 0 0
706 236 1 0.7 6.859967648092813 4.832991741585339 98.74897566226318 0 0 0
29 10 2 -0.35 0.190299852060002 2.165186994771245 99.35266870285207 0 0 0
2112 704 2 -0.35 3.169893222457668 2.2642623606482446 97.99092006321128 0 1 0
2110 704 1 0.7 4.187692991587803 2.170417147808369 97.44125468572594 0 1 0
2111 704 2 -0.35 5.207747243555053 2.0620053228186515 96.89807501544689 0 1 0
28 10 1 0.7 0.1887585019943875 1.885469133146339 98.22574966872148 0 0 0
113 38 2 -0.35 6.426290946846284 9.407482544438034 106.64326436481139 0 0 0
2306 769 2 -0.35 7.643773589906668 0.5244242841868358 95.72292872241884 0 1 0
30 10 2 -0.35 0.16258960330199798 1.6167872669195582 97.09679222663857 0 0 0
887 296 2 -0.35 2.8488415009410533 8.306909201496246 107.3809500244341 0 0 0
580 194 1 0.7 3.8429799431703544 6.063631242692166 96.84372771903631 0 0 0
3972 1324 2 -0.35 0.6424936832795459 4.802677442542513 97.55967695092377 1 0 0
582 194 2 -0.35 2.9506487515202156 6.807342628393925 96.82033480597055 0 0 0
2305 769 1 0.7 8.415154275221612 0.6550595436025303 96.58022338588796 0 1 0
581 194 2 -0.35 4.736697667982295 5.322002221739569 96.86390242744825 0 0 0
144 48 2 -0.35 9.022023797742175 6.650965213932658 95.96202123201985 0 0 0
163 55 1 0.7 6.96325615979025 8.760025036038536 96.72598064067645 0 0 0
164 55 2 -0.35 6.020064647198633 8.27487282406376 96.25326478781386 0 0 0
165 55 2 -0.35 7.894864413403097 9.268530832680238 97.1962532924466 0 0 0
810 270 2 -0.35 9.813642145094715 7.533862394001183 98.92731401963053 0 0 0
794 265 2 -0.35 18.522653847179303 5.5868875999355785 103.57242866855468 0 0 0
354 118 2 -0.35 13.080156961664951 3.7535139712971146 96.96572374054404 0 0 0
1830 610 2 -0.35 10.773953627096567 0.846609357505208 106.24148104246461 0 1 0
771 257 2 -0.35 13.477499548221715 7.384471766138518 101.683406654035 0 0 0
770 257 2 -0.35 11.495519034741001 6.259559367394961 101.2403829122944 0 0 0
769 257 1 0.7 12.487327718563751 6.821850956723401 101.45682323311776 0 0 0
135 45 2 -0.35 17.23749408304552 8.518352377107059 104.93330625133827 0 0 0
157 53 1 0.7 14.500426110588482 0.885496014022764 99.0682786176896 0 0 0
159 53 2 -0.35 14.369696811070245 1.9236248932959947 99.57038776246787 0 0 0
172 58 1 0.7 12.638196640463455 4.601036755943877 106.64470619579374 0 0 0
173 58 2 -0.35 11.527043049877658 4.267575075853819 106.70106322913526 0 0 0
280 94 1 0.7 10.18285493288247 3.7412036840300242 100.48841822688071 0 0 0
226 76 1 0.7 16.720306497605275 4.760393511718639 106.11739607096185 0 0 0
227 76 2 -0.35 16.448867014968318 3.888918607738881 105.39946048488878 0 0 0
247 83 1 0.7 13.265649747373429 7.576500484197548 104.83501602395587 0 0 0
248 83 2 -0.35 12.446452976613749 6.82076613500013 104.51001816628334 0 0 0
249 83 2 -0.35 14.074756337841716 8.340048402933885 105.1653726965468 0 0 0
531 177 2 -0.35 16.048156254215144 4.652662499548401 101.89658060534379 0 0 0
530 177 2 -0.35 15.433835122440987 6.079126595616462 103.62173107405944 0 0 0
529 177 1 0.7 15.73764635668697 5.3574964333380795 102.76516628586359 0 0 0
281 94 2 -0.35 11.140939640346915 3.1134340631123743 100.67437435291814 0 0 0
527 176 2 -0.35 10.027772358771507 2.164426254596574 103.47327322255592 0 0 0
335 112 2 -0.35 13.113681709129063 8.464987944529652 98.73226421327986 0 0 0
345 115 2 -0.35 10.039121508813269 8.91897790744353 103.94844930876401 0 0 0
657 219 2 -0.35 0.42547991783954453 6.312236472036055 110.96340718009954 0 0 0
399 133 2 -0.35 13.09300689264639 1.4681503719623001 102.41019662816139 0 0 0
398 133 2 -0.35 13.29810128689203 3.731194199693191 102.88970544356538 0 0 0
397 133 1 0.7 13.192728789336515 2.6008680353234 102.6449330434141 0 0 0
362 121 2 -0.35 13.881292087946765 5.030776740514135 99.59142329025406 0 0 0
48 16 2 -0.35 18.340371192337305 6.551239554808538 100.45007424676419 0 0 0
579 193 2 -0.35 9.55148839064874 8.010699955815221 106.86172300613309 0 0 0
577 193 1 0.7 10.624495224939892 7.668106178784539 107.14162504222836 0 0 0
361 121 1 0.7 14.886888929996024 4.717931448195344 99.10189998856953 0 0 0
47 16 2 -0.35 16.153523995810197 7.1929703785044605 100.01132942521141 0 0 0
1829 610 2 -0.35 12.738245604694118 1.7726002008150967 105.41807175003939 0 1 0
46 16 1 0.7 17.25145388979579 6.878075295884812 100.21686499139727 0 0 0
1828 610 1 0.7 11.758448283345924 1.3065534286838625 105.8314784748276 0 1 0
381 127 2 -0.35 11.720157560406573 0.18620194839030443 99.80476495813271 0 0 0
841 281 1 0.7 17.853292455597717 8.69562251267048 96.64193742241137 0 0 0
282 94 2 -0.35 9.22171570516549 4.36475273611387 100.30188873052884 0 0 0
133 45 1 0.7 16.730545039506836 9.28912697679183 104.2291563400301 0 0 0