ITEM: TIMESTEP
0
ITEM: NUMBER OF NODES
128
ITEM: BOX BOUNDS
0 40
0 40
0 240
ITEM: NODES
1 1 0 0 0
2 1 18.75 0 0
3 1 18.75 18.75 0
4 1 0 18.75 0
5 1 0 0 95.625
6 1 18.75 0 95.625
7 1 18.75 18.75 95.625
8 1 0 18.75 95.625
9 1 0 0 95.625
10 1 18.75 0 95.625
11 1 18.75 18.75 95.625
12 1 0 18.75 95.625
13 1 0 0 118.125
14 1 18.75 0 118.125
15 1 18.75 18.75 118.125
16 1 0 18.75 118.125
17 1 0 0 118.125
18 1 18.75 0 118.125
19 1 18.75 18.75 118.125
20 1 0 18.75 118.125
21 1 0 0 144.375
22 1 18.75 0 144.375
23 1 18.75 18.75 144.375
24 1 0 18.75 144.375
25 1 0 0 144.375
26 1 18.75 0 144.375
27 1 18.75 18.75 144.375
28 1 0 18.75 144.375
29 1 0 0 240
30 1 18.75 0 240
31 1 18.75 18.75 240
32 1 0 18.75 240
33 1 0 18.75 0
34 1 18.75 18.75 0
35 1 18.75 40 0
36 1 0 40 0
37 1 0 18.75 95.625
38 1 18.75 18.75 95.625
39 1 18.75 40 95.625
40 1 0 40 95.625
41 1 0 18.75 95.625
42 1 18.75 18.75 95.625
43 1 18.75 40 95.625
44 1 0 40 95.625
45 1 0 18.75 118.125
46 1 18.75 18.75 118.125
47 1 18.75 40 118.125
48 1 0 40 118.125
49 1 0 18.75 118.125
50 1 18.75 18.75 118.125
51 1 18.75 40 118.125
52 1 0 40 118.125
53 1 0 18.75 144.375
54 1 18.75 18.75 144.375
55 1 18.75 40 144.375
56 1 0 40 144.375
57 1 0 18.75 144.375
58 1 18.75 18.75 144.375
59 1 18.75 40 144.375
60 1 0 40 144.375
61 1 0 18.75 240
62 1 18.75 18.75 240
63 1 18.75 40 240
64 1 0 40 240
65 1 18.75 0 0
66 1 40 0 0
67 1 40 18.75 0
68 1 18.75 18.75 0
69 1 18.75 0 95.625
70 1 40 0 95.625
71 1 40 18.75 95.625
72 1 18.75 18.75 95.625
73 1 18.75 0 95.625
74 1 40 0 95.625
75 1 40 18.75 95.625
76 1 18.75 18.75 95.625
77 1 18.75 0 118.125
78 1 40 0 118.125
79 1 40 18.75 118.125
80 1 18.75 18.75 118.125
81 1 18.75 0 118.125
82 1 40 0 118.125
83 1 40 18.75 118.125
84 1 18.75 18.75 118.125
85 1 18.75 0 144.375
86 1 40 0 144.375
87 1 40 18.75 144.375
88 1 18.75 18.75 144.375
89 1 18.75 0 144.375
90 1 40 0 144.375
91 1 40 18.75 144.375
92 1 18.75 18.75 144.375
93 1 18.75 0 240
94 1 40 0 240
95 1 40 18.75 240
96 1 18.75 18.75 240
97 1 18.75 18.75 0
98 1 40 18.75 0
99 1 40 40 0
100 1 18.75 40 0
101 1 18.75 18.75 95.625
102 1 40 18.75 95.625
103 1 40 40 95.625
104 1 18.75 40 95.625
105 1 18.75 18.75 95.625
106 1 40 18.75 95.625
107 1 40 40 95.625
108 1 18.75 40 95.625
109 1 18.75 18.75 118.125
110 1 40 18.75 118.125
111 1 40 40 118.125
112 1 18.75 40 118.125
113 1 18.75 18.75 118.125
114 1 40 18.75 118.125
115 1 40 40 118.125
116 1 18.75 40 118.125
117 1 18.75 18.75 144.375
118 1 40 18.75 144.375
119 1 40 40 144.375
120 1 18.75 40 144.375
121 1 18.75 18.75 144.375
122 1 40 18.75 144.375
123 1 40 40 144.375
124 1 18.75 40 144.375
125 1 18.75 18.75 240
126 1 40 18.75 240
127 1 40 40 240
128 1 18.75 40 240
ITEM: TIMESTEP
0
ITEM: NUMBER OF CUBES
16
ITEM: CUBES
1 1 1 2 3 4 5 6 7 8
2 1 9 10 11 12 13 14 15 16
3 1 17 18 19 20 21 22 23 24
4 1 25 26 27 28 29 30 31 32
5 1 33 34 35 36 37 38 39 40
6 1 41 42 43 44 45 46 47 48
7 1 49 50 51 52 53 54 55 56
8 1 57 58 59 60 61 62 63 64
9 1 65 66 67 68 69 70 71 72
10 1 73 74 75 76 77 78 79 80
11 1 81 82 83 84 85 86 87 88
12 1 89 90 91 92 93 94 95 96
13 1 97 98 99 100 101 102 103 104
14 1 105 106 107 108 109 110 111 112
15 1 113 114 115 116 117 118 119 120
16 1 121 122 123 124 125 126 127 128
