LAMMPS data file via write_data, version 29 Aug 2024, timestep = 0, units = real

7050 atoms
2 atom types
4700 bonds
1 bond types
2350 angles
1 angle types

0 40 xlo xhi
0 40 ylo yhi
0 240 zlo zhi

Masses

1 12.0107
2 15.9994

Pair Coeffs # lj/cut/coul/long/omp

1 0.0536545 2.8
2 0.156989 3.05

Bond Coeffs # harmonic/omp

1 1028.27 1.16

Angle Coeffs # harmonic/omp

1 55.96 180

Atoms # full

6898 2300 1 0.7 12.418623905912343 16.759269143708828 9.615689583551616 0 0 0
6899 2300 2 -0.35 11.655009419005411 15.893250979934244 9.727088553622124 0 0 0
6900 2300 2 -0.35 13.182265029101071 17.625034468427742 9.502644353994327 0 0 0
6917 2306 2 -0.35 17.751628370781606 6.411276421912429 32.655560082555446 0 0 0
6896 2299 2 -0.35 15.159491644752617 8.270780200141102 32.106329166230694 0 0 0
6895 2299 1 0.7 16.139995768589166 8.804085797724555 31.789327801311845 0 0 0
6897 2299 2 -0.35 17.11395382861406 9.347474675844818 31.469209503908814 0 0 0
6916 2306 1 0.7 18.39656280795211 5.504631027017407 32.98468419511174 0 0 0
6919 2307 1 0.7 7.761443629159755 0.9593096237560506 46.459134224348816 0 0 0
6920 2307 2 -0.35 7.381647120364345 1.4310027788665831 47.448371390170344 0 0 0
6921 2307 2 -0.35 8.138230034517342 0.48530760840605675 45.46907646321943 0 0 0
6903 2301 2 -0.35 11.387492102854633 1.2618299322570308 43.86052670900082 0 0 0
6901 2301 1 0.7 11.008817144412761 1.7341634345505488 44.84988353176319 0 0 0
6902 2301 2 -0.35 10.633248158503843 2.2089018734070294 45.84005779074468 0 0 0
6915 2305 2 -0.35 1.0399796544083248 16.214144070312692 48.68981690832638 0 0 0
6914 2305 2 -0.35 1.412930716242951 16.70459125404395 46.45329264711006 0 0 0
6913 2305 1 0.7 1.225576881224652 16.45969198094876 47.571497260926165 0 0 0
114 38 2 -0.35 7.998409099544648 7.919001810031522 83.29058217003791 0 0 0
22 8 1 0.7 3.692415979899855 1.0078907367042185 85.86086901708038 0 0 0
23 8 2 -0.35 2.5411428855157103 0.9085052709938303 85.74798564969143 0 0 0
24 8 2 -0.35 4.842855794208546 1.1158506022654089 85.97143434049197 0 0 0
3483 1161 2 -0.35 0.37702747492427713 6.0164731148727135 83.91989640612205 1 0 0
4 2 1 0.7 2.901692336101041 5.099149787149078 86.05073458642174 0 0 0
5 2 2 -0.35 3.476435671456646 4.140820933571423 85.73597004498922 0 0 0
6 2 2 -0.35 2.329734501801373 6.060313854129057 86.36340175158949 0 0 0
113 38 2 -0.35 6.9382512112034815 6.438949789113776 84.7315283899285 0 0 0
51 17 2 -0.35 8.72357687646367 8.662875229551716 86.25952140852601 0 0 0
58 20 1 0.7 6.556675993337568 3.445639130726708 85.32873974573843 0 0 0
59 20 2 -0.35 6.465798189800342 3.7656590675873183 86.4410782501723 0 0 0
60 20 2 -0.35 6.658547337503439 3.1343987478769617 84.21572827629291 0 0 0
112 38 1 0.7 7.464740680856506 7.186368263045414 84.01534929313367 0 0 0
72 24 2 -0.35 3.137376648898291 0.13374439281431993 88.71541333148947 0 0 0
77 26 2 -0.35 7.501339744380023 6.321211996024473 87.93997952220246 0 0 0
100 34 1 0.7 0.05260832202877047 2.361845279599488 86.26866250064585 0 0 0
3494 1165 2 -0.35 18.701845602675586 9.730333197499007 85.0682059741648 0 0 0
102 34 2 -0.35 0.37109579912022284 3.249235613782727 85.59063957460644 0 0 0
6905 2302 2 -0.35 0.6537934098851802 8.626385360239524 85.81816855105244 0 0 0
6904 2302 1 0.7 1.6963798827315515 9.134793037443579 85.86289499991096 0 0 0
76 26 1 0.7 6.3642966662439235 6.370362157721864 87.70894776745497 0 0 0
78 26 2 -0.35 5.226046654805024 6.4080583895336165 87.48041333427982 0 0 0
8 3 2 -0.35 5.946151221639986 9.30548979092968 87.94482293291787 0 0 0
732 244 2 -0.35 1.4647114440180582 3.8631357612030146 88.32510236702282 0 0 0
36 12 2 -0.35 5.716310843618341 9.521843125402482 84.71596095807813 0 0 0
1387 463 1 0.7 8.829870761410989 3.208592476568341 87.99891740141167 0 0 0
38 13 2 -0.35 7.952317887646324 0.8287818348238433 86.28409077658829 0 0 0
16 6 1 0.7 11.117381323526908 1.0668843461795343 83.50626734675849 0 0 0
17 6 2 -0.35 10.027340567977728 0.863636555116301 83.85064045768951 0 0 0
96 32 2 -0.35 14.326701027837249 7.664671175465069 82.30067461342031 0 0 0
104 35 2 -0.35 15.326056004880622 2.3019820339044768 83.1816751461979 0 0 0
49 17 1 0.7 9.475602957815111 8.209942880822707 87.01887899546293 0 0 0
116 39 2 -0.35 16.65732743839927 5.570122828596535 82.83174003537168 0 0 0
50 17 2 -0.35 10.234984742566313 7.771745374151477 87.78044026953134 0 0 0
18 6 2 -0.35 12.203642257271984 1.2633063735723 83.14603087454492 0 0 0
1404 468 2 -0.35 18.603778778923434 5.899055273069199 86.71230336518377 0 0 0
82 28 1 0.7 15.957488869401057 8.86846860115153 85.83987169740236 0 0 0
83 28 2 -0.35 15.887249849948432 7.965072784894051 85.11391591694235 0 0 0
94 32 1 0.7 13.648875569378227 7.284490035603238 83.16200816094913 0 0 0
95 32 2 -0.35 12.96631834723062 6.910857952579733 84.02398110549153 0 0 0
103 35 1 0.7 14.610572781736593 3.206340345112354 83.05369089919733 0 0 0
105 35 2 -0.35 13.896873673624771 4.114612232672362 82.94008761642363 0 0 0
106 36 1 0.7 14.417630927711457 4.687764111856279 86.00000923043046 0 0 0
108 36 2 -0.35 13.311566024701332 4.699937121325818 86.3512569102462 0 0 0
1388 463 2 -0.35 9.533915901163498 3.4056704101812834 87.09662168905939 0 0 0
25 9 1 0.7 12.245853214950722 1.8886523008464517 87.3111403529278 0 0 0
26 9 2 -0.35 11.9208286403402 1.4591673357140225 86.283423604291 0 0 0
28 10 1 0.7 10.57768503772448 4.950739080605547 84.78216442389169 0 0 0
29 10 2 -0.35 11.010273152185418 3.980441916232895 84.31576445196791 0 0 0
30 10 2 -0.35 10.129495202963897 5.922237473015247 85.23382378207933 0 0 0
107 36 2 -0.35 15.524438425493901 4.678562076681475 85.65032339597185 0 0 0
27 9 2 -0.35 12.584998327167082 2.304406483865413 88.34003922858899 0 0 0
1403 468 2 -0.35 16.679216972483186 6.578794014667613 87.81682959977644 0 0 0
1402 468 1 0.7 17.646497503000305 6.238339874375418 87.27266720851225 0 0 0
274 92 1 0.7 15.683958458270167 1.4395271922147845 87.74018183506796 0 0 0
275 92 2 -0.35 15.12033257694466 1.636382707641615 86.7441755787751 0 0 0
906 302 2 -0.35 13.45478637144431 7.796621960530412 87.07443266216723 0 0 0
904 302 1 0.7 13.157003844828685 7.252633665162853 88.05558566055511 0 0 0
115 39 1 0.7 17.496717338665817 6.295412148815632 83.17348952927333 0 0 0
117 39 2 -0.35 18.33050457405397 7.029030134803334 83.51204069292336 0 0 0
40 14 1 0.7 18.366736894378263 3.249310605341915 85.31223560616326 0 0 0
1503 501 2 -0.35 6.191265484685269 18.524299950180144 97.96713500124581 0 0 0
630 210 2 -0.35 14.978789297284923 11.302900072820043 99.58741590690624 0 0 0
1644 548 2 -0.35 9.794157783524383 17.809651649133702 101.8806224914182 0 0 0
42 14 2 -0.35 18.66919349405948 3.803089400312685 84.33835472534793 0 0 0
89 30 2 -0.35 5.868962147903309 18.128101926272038 84.40731779839966 0 0 0
110 37 2 -0.35 8.393279367404178 11.329873729225836 84.51952343443546 0 0 0
109 37 1 0.7 9.283629572944193 10.796846456703419 83.99830121701909 0 0 0
31 11 1 0.7 8.7956899474209 17.89656608512323 85.58427363068465 0 0 0
33 11 2 -0.35 8.306683687487004 17.994535172122607 86.63309177180146 0 0 0
34 12 1 0.7 5.474337056840353 10.54935025505551 85.198679866692 0 0 0
35 12 2 -0.35 5.232221985033366 11.579993820524415 85.67603868064248 0 0 0
65 22 2 -0.35 2.7136700656295516 12.521066619377331 87.77880866659251 0 0 0
85 29 1 0.7 5.791411418256467 14.961106176051816 85.40439584003194 0 0 0
86 29 2 -0.35 4.679513216133117 14.902411267254323 85.07608200496364 0 0 0
87 29 2 -0.35 6.906756301506337 15.012143972264516 85.7235066097168 0 0 0
3474 1158 2 -0.35 2.6030001324464465 17.39515745463656 85.4927156877972 1 0 0
6906 2302 2 -0.35 2.740201075445939 9.64152757548847 85.89133571382766 0 0 0
46 16 1 0.7 5.584659007443609 17.90556370927307 88.0125222690436 0 0 0
47 16 2 -0.35 5.142034821872806 17.131412840560284 87.27026668722164 0 0 0
53 18 2 -0.35 7.535485945384082 11.960907610239166 87.6331928714096 0 0 0
64 22 1 0.7 3.6781955044828085 13.15665758354317 87.89280781168442 0 0 0
66 22 2 -0.35 4.644990133793424 13.788087161545834 88.01678162877602 0 0 0
3472 1158 1 0.7 2.423950600197584 16.56416886791425 86.28348230799267 1 0 0
3473 1158 2 -0.35 2.2372839535067666 15.734830629195953 87.07486203918853 1 0 0
52 18 1 0.7 8.394715999430398 12.653374111498568 87.27429113708469 0 0 0
4427 1476 2 -0.35 0.3825365367610656 6.962537460660951 98.24590380197525 1 0 0
44 15 2 -0.35 11.563732855186755 10.024850785373381 86.14355722355272 0 0 0
98 33 2 -0.35 9.936454012675162 16.013613414467073 88.37416445078615 0 0 0
32 11 2 -0.35 9.290260548620276 17.787276946466573 84.54063255221412 0 0 0
45 15 2 -0.35 13.369010371963089 10.016670390540321 84.68191438023455 0 0 0
10 4 1 0.7 17.89968197174161 13.186921745920285 86.16726000555384 0 0 0
11 4 2 -0.35 16.805604844251402 13.23163260061261 86.55403690540584 0 0 0
21 7 2 -0.35 13.941090389064723 11.877364929537064 87.1551443708212 0 0 0
43 15 1 0.7 12.465354158193815 10.02530159973069 85.41104937040781 0 0 0
55 19 1 0.7 15.014213600197321 15.535965544824332 87.551876678591 0 0 0
57 19 2 -0.35 15.274557184723479 16.36169532806626 86.77806130731247 0 0 0
61 21 1 0.7 15.300480042142011 12.356012323033841 84.07562977023595 0 0 0
62 21 2 -0.35 14.40728695161177 13.090501466610261 84.17113362235408 0 0 0
63 21 2 -0.35 16.19567081226372 11.623401340860172 83.97950400995872 0 0 0
111 37 2 -0.35 10.1772780405712 10.270172459353875 83.47772201083379 0 0 0
73 25 1 0.7 16.86160191818879 16.300747432628338 84.10723901931034 0 0 0
74 25 2 -0.35 16.793172947198315 15.141793420727462 84.12254234542327 0 0 0
75 25 2 -0.35 16.942810039846687 17.458082247433925 84.08626151215381 0 0 0
84 28 2 -0.35 16.029577850598322 9.763190159874382 86.57558603272435 0 0 0
91 31 1 0.7 11.954767603535872 13.788808666249851 85.58840994831499 0 0 0
92 31 2 -0.35 12.393084511768034 14.726060558074337 86.11593344941639 0 0 0
93 31 2 -0.35 11.512821070925353 12.858553972037006 85.051709046093 0 0 0
19 7 1 0.7 14.592475943683763 11.794333220493865 88.11339242391773 0 0 0
54 18 2 -0.35 9.258023498465002 13.3502475946765 86.93530586652776 0 0 0
79 27 1 0.7 13.106758419185493 17.452194272484718 84.95424639703012 0 0 0
80 27 2 -0.35 12.482867242444 17.922949347192787 85.81350803846566 0 0 0
81 27 2 -0.35 13.727680306295424 16.974227369339314 84.09796373647885 0 0 0
225 75 2 -0.35 10.218111716059653 12.80730032980545 103.62474877451567 0 0 0
3 1 2 -0.35 18.440796896846507 11.164199361315527 88.22817233942072 0 0 0
1558 520 1 0.7 15.99154185442356 13.81042588950603 104.72134006842012 0 0 0
170 57 2 -0.35 0.8612314318115303 1.9179830437426424 99.28683908179647 0 0 0
1 1 1 0.7 18.604875488405582 10.01820972224575 88.14367179608959 0 0 0
70 24 1 0.7 2.3416979212994975 0.7488611228621243 89.29466567246153 0 0 0
460 154 1 0.7 2.87943770659577 7.378411907849783 89.1700101242548 0 0 0
461 154 2 -0.35 2.8510129945257763 6.2893393369622945 89.57231160282487 0 0 0
462 154 2 -0.35 2.906622975073121 8.465079407098427 88.76278060194711 0 0 0
730 244 1 0.7 0.8969690714537403 4.215483517048398 89.27423180542002 0 0 0
71 24 2 -0.35 1.5406520483140445 1.3567807475782534 89.87454679767063 0 0 0
503 168 2 -0.35 6.336645117092924 0.3841621883550796 89.68734265093116 0 0 0
1389 463 2 -0.35 8.120604480348801 3.0304854616897248 88.90046220358562 0 0 0
670 224 1 0.7 17.29698617051787 14.007950333539261 100.92977199544268 0 0 0
1318 440 1 0.7 0.14585019723613948 0.964974022336586 92.402951475935 0 0 0
350 117 2 -0.35 7.347492720063469 8.415447755653181 90.57981805483895 0 0 0
777 259 2 -0.35 4.445854018581846 2.974800297484358 89.12751605504964 0 0 0
776 259 2 -0.35 5.561810934153966 4.802897380342815 90.02360643532711 0 0 0
775 259 1 0.7 5.008894807018891 3.8826761781257004 89.58119065351855 0 0 0
595 199 1 0.7 7.757659572193468 1.963812608984742 91.60560379614391 0 0 0
596 199 2 -0.35 6.825241544874297 2.653111740072602 91.67071281894904 0 0 0
597 199 2 -0.35 8.686958020799937 1.2702296007480756 91.54827900587549 0 0 0
731 244 2 -0.35 0.3271076794253755 4.5772395215848265 90.21838603453907 0 0 0
1473 491 2 -0.35 0.6670414147787774 7.913160627057979 91.04936520737841 0 0 0
1154 385 2 -0.35 3.899199256032742 8.219680744774339 91.77404999375123 0 0 0
1153 385 1 0.7 3.7811686796658934 8.443368405836583 92.90694084205244 0 0 0
349 117 1 0.7 8.259784186228604 8.787342315151383 91.19425510919166 0 0 0
1320 440 2 -0.35 1.1036552668162052 1.1279032717852702 93.03911490226203 0 0 0
1600 534 1 0.7 6.298561614812266 5.937327157209955 92.89107421701726 0 0 0
1602 534 2 -0.35 7.417305592162297 6.220911429929472 92.76513537934505 0 0 0
1155 385 2 -0.35 3.676525843248284 8.656682503503378 94.0430563218855 0 0 0
139 47 1 0.7 2.221918964906135 2.292055433294063 95.55506507270762 0 0 0
140 47 2 -0.35 1.95317324259807 3.354171310974563 95.17076840034885 0 0 0
141 47 2 -0.35 2.4852829586962417 1.2295059887139614 95.94219035222113 0 0 0
304 102 1 0.7 6.752614258130573 2.8044657470934204 95.27111106121488 0 0 0
305 102 2 -0.35 6.404421381935559 2.0487469827048908 96.08137344792496 0 0 0
306 102 2 -0.35 7.100745105955449 3.5619989349140986 94.46348183465281 0 0 0
1122 374 2 -0.35 2.774195281400951 6.284575448991442 96.05485916400117 0 0 0
1121 374 2 -0.35 4.72000341687392 5.018518048798269 96.00939135046453 0 0 0
1120 374 1 0.7 3.7468368660197577 5.651030500340712 96.02935789073177 0 0 0
1601 534 2 -0.35 5.173707564418438 5.68086389735422 93.02228235947688 0 0 0
379 127 1 0.7 7.56543633307656 8.146593554590075 95.61005239778092 0 0 0
380 127 2 -0.35 6.7533390930150965 7.3174855980682505 95.60773548076635 0 0 0
381 127 2 -0.35 8.380952827319826 8.97281451188462 95.60593485275587 0 0 0
391 131 1 0.7 4.159007746283217 1.5652668068566562 92.67042348103034 0 0 0
393 131 2 -0.35 4.335102891680548 2.1631092429289356 93.65025966222116 0 0 0
529 177 1 0.7 2.3926684693909883 4.871451126004052 92.37357260490613 0 0 0
530 177 2 -0.35 2.0050375653805315 5.8070753238663 92.94129596138848 0 0 0
531 177 2 -0.35 2.780846789457881 3.9409554858085665 91.7980563932136 0 0 0
392 131 2 -0.35 3.9771929506502666 0.9614950858941786 91.69590399376087 0 0 0
567 189 2 -0.35 6.481293849480889 9.936884650683051 93.43007787037627 0 0 0
4787 1596 2 -0.35 0.5817890641778196 0.657246276658613 104.88871055596222 1 0 0
579 193 2 -0.35 0.5659944539809746 8.369122311069166 94.19111832574123 0 0 0
276 92 2 -0.35 16.236494052285483 1.2445526855974978 88.74232626041805 0 0 0
905 302 2 -0.35 12.866798998381457 6.696628686201943 89.03247910816225 0 0 0
508 170 1 0.7 10.391982563754606 5.542162999534243 90.17046743830623 0 0 0
509 170 2 -0.35 10.730121502482302 4.533968463217245 89.70649860694334 0 0 0
4142 1381 2 -0.35 18.151979871391525 3.9104852630447557 89.06321445828259 0 0 0
4141 1381 1 0.7 18.61984446569878 2.880209266290529 89.32414252239444 0 0 0
510 170 2 -0.35 10.060919298972646 6.553643832153893 90.63342084579875 0 0 0
1452 484 2 -0.35 15.263942932953643 5.710365469493688 90.6112739878527 0 0 0
1451 484 2 -0.35 15.118794368864556 4.20932628652077 88.84571258784455 0 0 0
1450 484 1 0.7 15.195077941180708 4.953645531613365 89.73357907024777 0 0 0
996 332 2 -0.35 13.73551862462089 3.05029864643824 91.3227725414512 0 0 0
995 332 2 -0.35 11.760522216882217 1.8320836233966367 91.26875943801757 0 0 0
994 332 1 0.7 12.746626574522995 2.44265138303114 91.29159420172324 0 0 0
794 265 2 -0.35 15.266450748692947 8.68380318618417 89.47342359296331 0 0 0
351 117 2 -0.35 9.171028672843171 9.172393127099104 91.80263279397994 0 0 0
6572 2191 2 -0.35 17.64657548900083 0.9158946221376915 95.10494781405225 0 1 0
175 59 1 0.7 17.27683339835468 6.663706900309832 93.71377672934528 0 0 0
3740 1247 2 -0.35 18.403916770601956 6.492672600869324 90.83034106256108 0 0 0
3211 1071 1 0.7 14.186884945621332 0.09849060233924804 94.12587184400978 0 1 0
245 82 2 -0.35 17.0400572347205 3.569486215533615 91.87040482488216 0 0 0
2612 871 2 -0.35 17.152006759219887 0.44257182147179724 91.78518627281301 0 1 0
1496 499 2 -0.35 12.485314627136464 3.24836600438616 94.36894866136896 0 0 0
1495 499 1 0.7 13.098209738793228 4.150498913949231 94.76853302906676 0 0 0
1377 459 2 -0.35 9.731387509963692 4.177088297659494 92.6698851930057 0 0 0
244 82 1 0.7 16.411051053991915 3.2878988776213105 92.80471174149869 0 0 0
246 82 2 -0.35 15.783890166244094 3.0139979816437683 93.74246073908742 0 0 0
1077 359 2 -0.35 13.143752352163473 7.999529745296662 91.90000930755407 0 0 0
1076 359 2 -0.35 12.551368723210969 5.797495653984316 92.33944492732068 0 0 0
1075 359 1 0.7 12.851322446987055 6.897373621540615 92.11980515002375 0 0 0
795 265 2 -0.35 16.335615247741995 8.707286783831744 91.53223661586736 0 0 0
793 265 1 0.7 15.801760651003068 8.694447685050898 90.50268666981934 0 0 0
1043 348 2 -0.35 14.687508003710382 2.4914906843320743 96.61231325978099 0 0 0
2335 779 1 0.7 10.399789898729432 0.9241515239861428 94.10836293644863 0 1 0
1541 514 2 -0.35 10.770987783510947 7.865243038798549 94.07104898204226 0 0 0
1540 514 1 0.7 10.902355049464546 9.015333009423763 94.16471207589717 0 0 0
176 59 2 -0.35 16.225250866239794 6.199518610185499 93.5531124900924 0 0 0
1376 459 2 -0.35 9.88040967955475 5.002668135731569 94.8347573220977 0 0 0
1375 459 1 0.7 9.796166181287253 4.589858814870811 93.7530394503191 0 0 0
1044 348 2 -0.35 16.74470852010913 3.544132462165624 96.83868072347607 0 0 0
1042 348 1 0.7 15.714461140206305 3.021524739018733 96.72663019123173 0 0 0
656 219 2 -0.35 11.614496125158562 1.0213756871904835 96.78675870215717 0 0 0
1461 487 2 -0.35 13.677523178812828 8.399458152243211 94.86746911278347 0 0 0
1497 499 2 -0.35 13.708769599403665 5.051334545170036 95.17052810446249 0 0 0
2336 779 2 -0.35 9.594006897984745 1.6780024158409845 94.47067382409088 0 1 0
2337 779 2 -0.35 11.211288321182625 0.17680016480788635 93.74719477420129 0 1 0
1459 487 1 0.7 14.755605676879577 8.763604243109745 94.64046375816108 0 0 0
3212 1071 2 -0.35 14.232057453715061 0.43772522706441563 93.01627294290932 0 1 0
1460 487 2 -0.35 15.835057745170733 9.120068299972951 94.40986517980514 0 0 0
2519 840 2 -0.35 10.004448413110142 0.5269098965209482 88.7660719835563 0 1 0
6571 2191 1 0.7 18.403144080980205 0.17982014131483057 94.6213694389577 0 1 0
177 59 2 -0.35 18.335772503688123 7.11374375616004 93.8692047791012 0 0 0
881 294 2 -0.35 18.579539824105634 17.024525722401766 100.38283364577052 0 0 0
7 3 1 0.7 5.443898340051117 10.101213077445097 88.62409117554198 0 0 0
1554 518 2 -0.35 1.7333903753561628 18.047220581584245 92.75758859340783 0 0 0
770 257 2 -0.35 0.2936943478533427 10.235894463724511 88.53179290872492 0 0 0
97 33 1 0.7 8.802101639185494 15.869411836528903 88.5738904842331 0 0 0
99 33 2 -0.35 7.665859369191302 15.729782293973631 88.76498365421239 0 0 0
9 3 2 -0.35 4.938920677997398 10.902031093922512 89.29542706367133 0 0 0
769 257 1 0.7 0.670653135122485 10.660547804971763 89.5440474606735 0 0 0
271 91 1 0.7 14.601164551449228 18.04603696527877 102.26509659591954 0 0 0
1432 478 1 0.7 12.682963930348894 11.182106032548981 103.63819950629508 0 0 0
3471 1157 2 -0.35 0.5218128321961484 14.232264551031777 89.66039034354816 1 0 0
435 145 2 -0.35 4.943623800632393 16.097139005724884 90.18664945298676 0 0 0
1464 488 2 -0.35 3.846472427955214 11.271665031791843 92.11093385505517 0 0 0
1463 488 2 -0.35 3.2953760617606296 13.202189814701672 90.9443594182226 0 0 0
1462 488 1 0.7 3.563772136897758 12.230923309328563 91.5221030878057 0 0 0
1415 472 2 -0.35 8.813162501337034 18.444564667385823 90.01704881569876 0 0 0
433 145 1 0.7 5.525440368003162 15.200331437527906 90.63919434765694 0 0 0
434 145 2 -0.35 6.096369023325796 14.30022442326285 91.09861692854042 0 0 0
447 149 2 -0.35 9.21923804825172 12.945249658224917 93.23409850889846 0 0 0
879 293 2 -0.35 7.542139204359012 11.563163446082848 90.92538031344044 0 0 0
878 293 2 -0.35 8.887746290932851 13.270401805454227 90.11077309777814 0 0 0
877 293 1 0.7 8.21576724658455 12.421183135917737 90.52896190113916 0 0 0
771 257 2 -0.35 1.0446459764692875 11.079209284983827 90.56009463676831 0 0 0
3469 1157 1 0.7 1.1297970461763598 15.173218112042065 89.96278318145107 1 0 0
957 319 2 -0.35 5.794992309080434 18.359764995402813 92.0122566645086 0 0 0
445 149 1 0.7 8.90727164512285 13.699111494579398 94.05938365373636 0 0 0
631 211 1 0.7 2.9614827643923998 15.446518764798205 93.10107881611573 0 0 0
633 211 2 -0.35 4.001881504802781 15.961185908249966 93.09826597379197 0 0 0
632 211 2 -0.35 1.9283009535994284 14.91692014076263 93.09602582154795 0 0 0
3779 1260 2 -0.35 1.218920986861817 16.36243103868761 95.719460213133 1 0 0
1290 430 2 -0.35 2.131416387344328 9.595702126364717 96.76710138609353 0 0 0
1289 430 2 -0.35 4.232278392806244 8.69131689346802 97.16847756710283 0 0 0
1288 430 1 0.7 3.1858391466922793 9.149714061059115 96.96214688330213 0 0 0
355 119 1 0.7 0.7802300073133681 11.503277680180826 94.7697319767548 0 0 0
356 119 2 -0.35 1.7708263190136802 11.791484366882825 94.23867678855727 0 0 0
378 126 2 -0.35 9.169703807776944 12.212389490157282 100.78238841300536 0 0 0
1632 544 2 -0.35 4.460541386184307 11.736017908872071 96.05207814854592 0 0 0
1631 544 2 -0.35 3.793754109657747 13.86458926687406 95.40739696100599 0 0 0
397 133 1 0.7 5.567357801655665 17.800650166326978 94.99705942842718 0 0 0
398 133 2 -0.35 6.51839029386566 17.143795169406584 94.88909454934075 0 0 0
1630 544 1 0.7 4.123540534565442 12.798836355943846 95.72930672125868 0 0 0
446 149 2 -0.35 8.601996039368396 14.448804965145483 94.89115619013364 0 0 0
565 189 1 0.7 6.360385128997878 11.086313312999449 93.54493465959158 0 0 0
566 189 2 -0.35 6.231936488958753 12.234712638983183 93.66134754373577 0 0 0
726 242 2 -0.35 8.50105916629897 16.264051910550343 92.28280586811309 0 0 0
724 242 1 0.7 8.689560484893638 17.323185352901643 92.71989101292272 0 0 0
120 40 2 -0.35 8.789537960597102 16.699844769429504 96.98238308093141 0 0 0
696 232 2 -0.35 7.668846934994962 11.886210522898413 96.31638475454709 0 0 0
3778 1260 1 0.7 0.5631561948480465 15.415117490581647 95.5810145917257 1 0 0
3470 1157 2 -0.35 1.7360756684690208 16.113394636398084 90.27432474816447 1 0 0
48 16 2 -0.35 6.022322955088446 18.682598799651014 88.75642156950579 0 0 0
399 133 2 -0.35 4.614349221494074 18.452917567913698 95.107362870527 0 0 0
725 242 2 -0.35 8.881288022842162 18.381600189143477 93.15912276738268 0 0 0
56 19 2 -0.35 14.759112202667888 14.708739152831683 88.325028440695 0 0 0
914 305 2 -0.35 10.081172822014269 10.604807787924353 88.99949835915116 0 0 0
915 305 2 -0.35 12.309531254418667 9.972916542814053 89.16727307793862 0 0 0
913 305 1 0.7 11.197074770249438 10.294472327792748 89.08491161572404 0 0 0
20 7 2 -0.35 15.237910388619373 11.709668099739815 89.07493043161263 0 0 0
1296 432 2 -0.35 12.849320998885034 16.94746311862854 88.98378247918454 0 0 0
1294 432 1 0.7 12.160414165988865 17.861901589307102 88.7945551838895 0 0 0
947 316 2 -0.35 11.892603994179318 13.308583336509143 89.02222696430134 0 0 0
938 313 2 -0.35 16.67031947412911 17.158896194563447 89.54193543850057 0 0 0
2195 732 2 -0.35 16.1935732548162 0.03669719688336767 101.50082259470167 0 1 0
937 313 1 0.7 17.813846431769246 17.34442038230672 89.46985382521522 0 0 0
133 45 1 0.7 12.753602280696443 11.326554028085182 92.22816441639971 0 0 0
134 45 2 -0.35 13.677619005264708 11.003434274603503 92.85295438683829 0 0 0
1440 480 2 -0.35 16.468324965939658 14.384358995216319 90.85448466640197 0 0 0
1439 480 2 -0.35 14.322731713864911 13.59748573701437 91.26667875136444 0 0 0
1438 480 1 0.7 15.394518693879315 13.991848879522546 91.0563490321184 0 0 0
946 316 1 0.7 11.678831425592664 14.055332275333607 89.88574769575452 0 0 0
598 200 1 0.7 15.659160733823063 18.59921493254983 92.04249668499968 0 0 0
135 45 2 -0.35 11.827616411481522 11.643525332849864 91.60448194163318 0 0 0
1302 434 2 -0.35 16.706322624825688 11.76051288071566 92.4614923726417 0 0 0
1300 434 1 0.7 16.44465621837391 11.88557223715732 93.58573192106827 0 0 0
948 316 2 -0.35 11.46294248051874 14.79991097736063 90.74992118914248 0 0 0
600 200 2 -0.35 16.656969165040387 18.23500963000712 92.51047351156377 0 0 0
654 218 2 -0.35 11.698370607039225 17.793348074245262 91.84841063500954 0 0 0
653 218 2 -0.35 13.440633689031293 16.374514238692946 92.43680194205483 0 0 0
652 218 1 0.7 12.561876064857945 17.07678755607359 92.1486778862907 0 0 0
1542 514 2 -0.35 11.041705586729865 10.165397838656597 94.24880078737985 0 0 0
1383 461 2 -0.35 13.52785315328667 11.239156713698158 96.19811320680668 0 0 0
1382 461 2 -0.35 12.823249324765321 13.09870502290535 95.00015585879227 0 0 0
1381 461 1 0.7 13.178670701772955 12.170261431413415 95.60053347288448 0 0 0
259 87 1 0.7 11.451673422908431 15.993014280567941 95.68000311766788 0 0 0
260 87 2 -0.35 11.71958802781454 15.882620135118781 96.80462081851344 0 0 0
261 87 2 -0.35 11.179404352930224 16.09681997798404 94.5561434700946 0 0 0
1301 434 2 -0.35 16.16665168047995 12.024078718553017 94.70415580723368 0 0 0
1591 531 1 0.7 15.076581496803596 15.354263633362056 94.62106429532187 0 0 0
1592 531 2 -0.35 14.419397228495795 15.83130948027328 95.45016120393039 0 0 0
1593 531 2 -0.35 15.725663671141431 14.868427154276027 93.78969560595088 0 0 0
1159 387 1 0.7 18.440779099927703 17.570223331572898 94.8225347632171 0 0 0
929 310 2 -0.35 16.581735778697233 14.192681061069452 96.81615090961394 0 0 0
928 310 1 0.7 17.72739419429345 14.303847853824934 96.9647549601441 0 0 0
1161 387 2 -0.35 17.79056823523601 16.643516986814227 95.07830498461293 0 0 0
3332 1111 2 -0.35 6.5002418758136 0.06602983975207212 93.43389303814288 0 1 0
3339 1113 2 -0.35 13.769705509875475 18.692612203778076 94.52099207035275 0 0 0
371 124 2 -0.35 13.539650026914224 0.339959258663786 99.35910130800521 0 0 0
1367 456 2 -0.35 7.737984535397415 4.518058515787806 97.27699828766715 0 0 0
1366 456 1 0.7 7.06293603547379 5.111328260228779 98.00913483095547 0 0 0
4426 1476 1 0.7 0.4266446092507281 5.818011882411121 98.05185767555822 1 0 0
1545 515 2 -0.35 8.980819630787943 1.8895767381517072 98.06420490734544 0 0 0
1543 515 1 0.7 8.202649602437706 1.0594465518243659 98.28715648980847 0 0 0
1498 500 1 0.7 7.576859633160205 8.352333491095512 99.41176734296235 0 0 0
1394 465 2 -0.35 1.9122361378283883 9.079418410730725 100.0309608975149 0 0 0
1393 465 1 0.7 0.9424545079006139 8.80423590585658 100.60685355224236 0 0 0
1368 456 2 -0.35 6.385158048922566 5.708841890529089 98.73760346505999 0 0 0
483 161 2 -0.35 3.420718343245133 6.391503862714683 99.18328848101139 0 0 0
1615 539 1 0.7 3.3370041274069586 3.430330647775694 99.213157573334 0 0 0
1617 539 2 -0.35 3.2550229829439266 3.457081765313726 98.05582609637405 0 0 0
1500 500 2 -0.35 7.173783155903074 8.907351853071361 98.47549661622892 0 0 0
291 97 2 -0.35 16.603895231884035 16.78386191187748 104.04538662689475 0 0 0
2508 836 2 -0.35 4.325724536764691 0.6493583267995575 98.46106025798304 0 1 0
3300 1100 2 -0.35 7.749760722231688 1.2279669176418913 104.64544058193366 0 1 0
1499 500 2 -0.35 7.990971386684025 7.79365470683552 100.34125959140457 0 0 0
3922 1308 1 0.7 0.2559524949780389 5.255232793834286 102.00741531710385 1 0 0
481 161 1 0.7 4.096015359632443 7.173140659617835 99.71359109068975 0 0 0
482 161 2 -0.35 4.763015824376253 7.957260849605858 100.25048168826777 0 0 0
1616 539 2 -0.35 3.428290889291175 3.4064104564820736 100.3697394405753 0 0 0
1305 435 2 -0.35 6.240747565140364 4.10535064405183 104.72702066920986 0 0 0
1544 515 2 -0.35 7.435820363134385 0.21674209785169488 98.51094020930368 0 0 0
1260 420 2 -0.35 6.509497363988072 2.8128929396957343 100.07961322324559 0 0 0
1259 420 2 -0.35 5.714131951485076 2.3743678232801697 102.21676235504732 0 0 0
1258 420 1 0.7 6.113369880785441 2.590278222354058 101.14843574563093 0 0 0
1074 358 2 -0.35 4.65284912360756 8.370138878033105 103.36537909963518 0 0 0
1073 358 2 -0.35 2.7245311888370454 7.323336914021145 102.60609163780835 0 0 0
1072 358 1 0.7 3.689562775637181 7.844373737461803 102.9883225146047 0 0 0
1002 334 2 -0.35 8.508521414770739 3.668808670870862 102.62973908883026 0 0 0
425 142 2 -0.35 0.004034572822450546 8.453825255791203 104.61549123121381 0 0 0
969 323 2 -0.35 5.72047056249963 5.705184416634776 102.08153986491236 0 0 0
968 323 2 -0.35 7.540984450056414 6.613488893045431 103.19930326351589 0 0 0
967 323 1 0.7 6.626618722323397 6.163471844980136 102.64507019592953 0 0 0
1967 656 2 -0.35 16.38080280823489 0.43552875522521334 98.17973582368042 0 1 0
798 266 2 -0.35 2.8017156083671857 3.8218794583836018 103.37005039293045 0 0 0
797 266 2 -0.35 2.798538664705098 1.539262255641618 102.94426637785091 0 0 0
796 266 1 0.7 2.8068667810489742 2.6818534535229643 103.15014105704543 0 0 0
637 213 1 0.7 8.64826302722792 9.608202694774253 103.75966377141883 0 0 0
638 213 2 -0.35 7.677404584710772 9.655292636364965 104.39381387627431 0 0 0
1000 334 1 0.7 9.02431556018274 3.842466338923557 103.65584230370814 0 0 0
145 49 1 0.7 13.374824888638571 14.276904690784598 101.83080050903922 0 0 0
2204 735 2 -0.35 7.777231300598342 0.13706750842234483 101.5576845682508 0 1 0
3924 1308 2 -0.35 0.6945328505580936 5.3820346122441505 100.94016947217175 1 0 0
858 286 2 -0.35 17.006042883498996 11.028492707212312 101.80512793970874 0 0 0
169 57 1 0.7 0.32172995127251397 1.7378522103151668 98.27498363387915 0 0 0
1550 517 2 -0.35 16.243004937869014 9.92004644799137 97.2778802642166 0 0 0
1355 452 2 -0.35 15.773308272604392 6.929671284143705 96.63602849007859 0 0 0
1354 452 1 0.7 15.044166827206874 7.2894270549066045 97.4655686727358 0 0 0
337 113 1 0.7 10.564927897930655 6.381073243714212 97.41191459608329 0 0 0
338 113 2 -0.35 11.601145133974846 5.862623030436849 97.34445221566817 0 0 0
339 113 2 -0.35 9.533520086759555 6.9097938452319365 97.49298390175865 0 0 0
655 219 1 0.7 11.817164556267961 1.920390779597952 97.49196293016195 0 0 0
1167 389 2 -0.35 11.310460264049693 9.269273996549687 97.0951085197202 0 0 0
309 103 2 -0.35 9.826301480479053 16.7337602926874 104.8593752780007 0 0 0
1356 452 2 -0.35 14.308879499364354 7.648212250784806 98.29075595307431 0 0 0