LAMMPS data file via write_data, version 29 Aug 2024, timestep = 4000000, units = real

7050 atoms
2 atom types
4700 bonds
1 bond types
2350 angles
1 angle types

0 40 xlo xhi
0 40 ylo yhi
0 240 zlo zhi

Masses

1 12.0107
2 15.9994

Pair Coeffs # lj/cut/coul/long/omp

1 0.0536545 2.8
2 0.156989 3.05

Bond Coeffs # harmonic/omp

1 1028.27 1.16

Angle Coeffs # harmonic/omp

1 55.96 180

Atoms # full

325 109 1 0.7 1.6987636530326395 16.705684688110914 3.1264197315485687 -1 9 0
327 109 2 -0.35 2.1625871511133314 16.29299474034807 2.179345043324964 -1 9 0
326 109 2 -0.35 1.153621966303489 17.16584535607295 4.01983441861701 -1 9 0
315 105 2 -0.35 11.172015645855705 8.921141186694673 17.273510333065254 -2 2 1
314 105 2 -0.35 12.386604105381569 6.982687546484309 17.546234548046023 -2 2 1
313 105 1 0.7 11.810531898376535 7.967372581553809 17.42784317190083 -2 2 1
6996 2332 2 -0.35 7.306331422158521 13.313643379474618 15.191728803967628 7 1 1
6995 2332 2 -0.35 8.30409792687852 14.557257988720654 13.489914827241707 7 1 1
6994 2332 1 0.7 7.82145254426338 14.011978352456849 14.393150980599676 7 1 1
1239 413 2 -0.35 19.457603130282312 16.08557470862055 10.733603278831412 3 -1 1
5976 1992 2 -0.35 15.859096762999767 16.687691075043965 34.048586550807386 1 5 0
5975 1992 2 -0.35 16.118854788676806 17.214825144588424 31.775846468675862 1 5 0
5974 1992 1 0.7 16.04881067124544 16.9242916453757 32.89904483603028 1 5 0
1490 497 2 -0.35 8.439690398442778 4.150437880939196 42.263774601173125 0 -3 1
1489 497 1 0.7 8.536772842287544 3.078444708124503 41.82356434613513 0 -3 1
1491 497 2 -0.35 8.73122019156025 2.0023477559443394 41.41792476802749 0 -3 1
4392 1464 2 -0.35 2.4371532565744665 11.401355485117977 40.49397045454372 2 3 1
4390 1464 1 0.7 2.688389682229348 11.072590126053788 39.41200242657414 2 3 1
4391 1464 2 -0.35 3.0290275782108447 10.831463764074996 38.32004395944343 2 3 1
1871 624 2 -0.35 9.992001780785525 18.539331787976167 41.39530024374658 2 -1 0
1870 624 1 0.7 10.088309748185997 19.452674004144853 40.69015619792127 2 -1 0
3647 1216 2 -0.35 4.872184214542491 19.964807755660154 61.67849744343994 2 -1 0
936 312 2 -0.35 11.510777434395752 1.368944902336523 68.85791929306997 3 -2 0
934 312 1 0.7 12.09219107501549 2.218785526526198 69.46596092106564 3 -2 0
935 312 2 -0.35 12.663783632141055 3.0769417150739446 70.03631178947305 3 -2 0
3064 1022 1 0.7 9.972686966134297 10.265160634916562 66.39293792148355 1 4 0
3065 1022 2 -0.35 9.487537555569062 10.358636408356887 65.34755843353496 1 4 0
3066 1022 2 -0.35 10.422284601498067 10.075637448800315 67.43160581803508 1 4 0
528 176 2 -0.35 4.461040533043213 6.093936433643421 76.77340640625445 2 -3 0
3244 1082 1 0.7 9.440812900720859 3.749719084807219 75.10857044479141 2 0 0
3246 1082 2 -0.35 8.904496336788501 4.411161977385593 74.33586951746366 2 0 0
3245 1082 2 -0.35 10.040672020537691 3.1270435117463666 75.87476452039328 2 0 0
527 176 2 -0.35 4.223362631069201 8.312056337572795 76.21768912525398 2 -3 0
526 176 1 0.7 4.3640381875527305 7.183437667222291 76.43356497778478 2 -3 0
5283 1761 2 -0.35 7.9906391166370305 3.673917858598932 77.69530702241343 1 2 0
30 10 2 -0.35 1.9905510365406387 7.193838583870223 79.0299614458895 2 -1 0
3171 1057 2 -0.35 1.4827446533975155 1.6614551446560146 73.78314273976325 3 2 0
3169 1057 1 0.7 1.1275573796569611 0.6037578728821174 73.62414951185328 3 2 0
5281 1761 1 0.7 7.2838280588082505 3.6277985847778327 78.61102933915984 1 2 0
6819 2273 2 -0.35 17.980278217361693 1.5611550019148535 72.9366111955033 -2 5 1
3192 1064 2 -0.35 10.640567113032267 7.578403545780752 74.33878639218351 0 0 0
502 168 1 0.7 11.178868481602265 9.580925984104674 77.88130809322793 -4 -2 0
4830 1610 2 -0.35 17.656452604792534 4.427450485804156 79.36360215716695 -1 -2 0
4828 1610 1 0.7 17.199329410376237 4.869826707273848 78.38212542495513 -1 -2 0
4829 1610 2 -0.35 16.831098915932078 5.321994992359121 77.39438818580501 -1 -2 0
4622 1541 2 -0.35 14.416817039342291 3.545663438256624 75.27224659426221 3 0 0
4623 1541 2 -0.35 14.510911091614759 3.484945408884519 77.59976482018874 3 0 0
4621 1541 1 0.7 14.454255981099141 3.5534475422232736 76.4316890616168 3 0 0
4787 1596 2 -0.35 19.971975747223524 9.085763770053564 78.65668207781414 3 0 0
6817 2273 1 0.7 16.858913716654413 1.803180023994424 72.86307969751563 -2 5 1
2494 832 1 0.7 15.61300000531055 6.871265298365393 74.70644287908256 7 -1 1
2495 832 2 -0.35 16.187151685656318 6.124796501808771 74.03806185121933 7 -1 1
3191 1064 2 -0.35 11.890930120319554 6.18707111302648 75.76697633456722 0 0 0
504 168 2 -0.35 10.724924841072465 8.50192057616211 77.86506560748735 -4 -2 0
6818 2273 2 -0.35 15.71113161557437 1.9849803704155975 72.8668299189103 -2 5 1
3190 1064 1 0.7 11.297240834231964 6.900385478075133 75.04200746638253 0 0 0
2496 832 2 -0.35 15.00014246183283 7.528832200558226 75.44833270548995 7 -1 1
2415 805 2 -0.35 15.091350066330683 7.816404762441094 78.77051360328436 0 0 0
6219 2073 2 -0.35 17.481610688876525 2.7555766541066458 76.08250628215977 5 4 1
6217 2073 1 0.7 18.00498421178261 1.7778294813348436 76.31698949154003 5 4 1
2413 805 1 0.7 15.880188534795538 8.505769120175762 79.24486073127393 0 0 0
1282 428 1 0.7 11.098787681365756 0.8464800684786282 74.03680898818244 0 0 0
6218 2073 2 -0.35 18.59078511407595 0.7603278178999686 76.54127342638647 5 4 1
6957 2319 2 -0.35 19.965539192983464 3.2186167937418175 77.37932896052921 1 -1 0
1284 428 2 -0.35 11.973818586164324 1.390941771682387 73.52355476782859 0 0 0
1283 428 2 -0.35 10.186143264603487 0.26461733816548977 74.47004686345466 0 0 0
3980 1327 2 -0.35 1.122253642383589 15.340026336948334 78.73687309441844 1 -1 0
652 218 1 0.7 1.837599789308262 11.795924432504115 78.75230388446434 4 -1 0
654 218 2 -0.35 1.6157875247627784 11.619593601610976 77.6426224209044 4 -1 0
197 66 2 -0.35 9.605742030017678 19.94261113172302 75.51301495191588 -2 1 1
6905 2302 2 -0.35 6.227100552689434 10.751873590379056 79.059458836748 2 0 0
198 66 2 -0.35 10.90947811259959 18.21412710229663 74.65385511693871 -2 1 1
196 66 1 0.7 10.194691121934172 19.03004641319075 75.0698961425206 -2 1 1
5458 1820 1 0.7 11.879815949669544 14.14153409247997 78.70524405279245 3 -1 0
5459 1820 2 -0.35 12.428352749101162 14.366599274676632 77.72119800833929 3 -1 0
4957 1653 1 0.7 13.639737131384331 18.106809212925793 76.72998818332498 1 0 0
4959 1653 2 -0.35 13.208027219664713 17.2121983612898 77.32596904052959 1 0 0
4958 1653 2 -0.35 14.122734290469198 18.9603531130589 76.16957529834846 1 0 0
3410 1137 2 -0.35 19.27172739386024 14.357736060551833 77.48816680075379 2 -5 1
3409 1137 1 0.7 18.478538356451946 14.651086565806658 78.28160975564353 2 -5 1
4325 1442 2 -0.35 11.534344342531499 20.068820778763797 78.25144394160762 0 2 0
503 168 2 -0.35 11.6225492327914 10.66740474002872 77.93020165269617 -4 -2 0
3411 1137 2 -0.35 17.672379175913484 15.0542625713063 79.00144374217545 2 -5 1
28 10 1 0.7 2.411584541870341 8.182960798637998 79.50356501315271 2 -1 0
29 10 2 -0.35 2.8159402974821472 9.169228677829036 79.92251856377098 2 -1 0
5945 1982 2 -0.35 8.009383686803112 8.558372290026163 81.07531283405703 2 2 0
2981 994 2 -0.35 2.69779304834762 4.0374887687528025 82.06643506709695 2 1 0
5282 1761 2 -0.35 6.569781685480973 3.5906906593542027 79.53996860366976 1 2 0
346 116 1 0.7 3.6503627128168965 1.4203741002111827 80.72183599336479 0 -1 0
5944 1982 1 0.7 7.93573494237961 7.456430558405051 80.74780743193347 2 2 0
5946 1982 2 -0.35 7.782906119876314 6.359051814055282 80.44204721480776 2 2 0
2363 788 2 -0.35 1.5595249955662707 6.6058306214267395 84.68707638819285 2 -1 0
2362 788 1 0.7 1.6132952754191292 7.610802445604965 85.30705492419392 2 -1 0
2364 788 2 -0.35 1.5835150148951707 8.66172388920279 85.82534723567714 2 -1 0
4483 1495 1 0.7 9.030192644729947 3.2337655703739117 83.18786303092823 -1 2 0
4485 1495 2 -0.35 8.851219540765737 2.4137105578002274 82.36970018680574 -1 2 0
5999 2000 2 -0.35 4.236858343731223 3.6808867025152785 87.69520274840455 3 2 0
6333 2111 2 -0.35 7.295279240772984 5.269918798632844 86.24119096695146 3 1 0
6701 2234 2 -0.35 6.093402405915686 3.3387882731664864 84.6632191166495 0 5 0
6331 2111 1 0.7 8.268284789935919 5.474044520777804 86.84519634800289 3 1 0
5261 1754 2 -0.35 5.339178321081847 8.67948454105969 82.16728451424758 1 2 0
5279 1760 2 -0.35 4.5744669944890965 6.91147659125247 86.57020134159389 2 2 0
5826 1942 2 -0.35 7.87794614769732 8.66911901688959 84.7033461955102 3 0 0
5262 1754 2 -0.35 3.9481231492100317 8.929077266955666 84.00191142620164 1 2 0
5260 1754 1 0.7 4.6718874220914035 8.852694057667081 83.07934701938376 1 2 0
6700 2234 1 0.7 5.855354927550929 4.320064490622942 84.15374929981296 0 5 0
5278 1760 1 0.7 5.475242953742823 7.498731723626422 86.94422258278684 2 2 0
6332 2111 2 -0.35 9.235571773929188 5.756011507805052 87.40845412375612 3 1 0
5280 1760 2 -0.35 6.3418694582312884 8.152958587450945 87.31044059527358 2 2 0
347 116 2 -0.35 4.228455603476798 1.1367995865263778 81.6547707507362 0 -1 0
6702 2234 2 -0.35 5.5889497272163755 5.340874011855997 83.59208904936152 0 5 0
2739 913 2 -0.35 7.036200120710271 0.9409200094847542 86.85006478262679 0 5 1
6000 2000 2 -0.35 3.2145248521295287 3.519691031733947 85.61567841784779 3 2 0
5998 2000 1 0.7 3.643736518437588 3.566262946501903 86.69272288501737 3 2 0
2982 994 2 -0.35 2.654530641516082 6.303154731757896 81.67938215390558 2 1 0
2980 994 1 0.7 2.6823031293528157 5.179767329984511 81.90942273887357 2 1 0
2034 678 2 -0.35 9.770725818960326 3.023297702448337 86.91367593007149 -1 -2 0
4503 1501 2 -0.35 0.30096923226292527 2.8574302382802914 84.32549999887247 -1 1 0
4501 1501 1 0.7 0.7881337572138536 2.117840307998802 83.59556626777878 -1 1 0
4502 1501 2 -0.35 1.2782711609917805 1.4318761441360583 82.84237064587244 -1 1 0
348 116 2 -0.35 3.044150481445001 1.756076182475553 79.80257039198722 0 -1 0
4484 1495 2 -0.35 9.131703718480631 3.99403975639989 84.05069496937135 -1 2 0
5824 1942 1 0.7 7.956368249570273 9.808993473967917 84.38310578685889 3 0 0
908 303 2 -0.35 0.7100746569473206 10.0151649571377 81.63912633100024 0 -3 1
2737 913 1 0.7 7.619307778771397 0.42531997543174627 87.70465210243346 0 5 1
473 158 2 -0.35 0.10524844375824927 5.775435048280406 88.3057259538878 0 -1 0
2414 805 2 -0.35 16.781785482306667 9.108055342666743 79.64890843152001 0 0 0
3881 1294 2 -0.35 13.873714790225062 1.7051607157091855 79.93651708827335 1 -2 0
3731 1244 2 -0.35 11.017670365199475 8.481985507191753 81.77660397224409 2 -1 0
3730 1244 1 0.7 11.106199087785662 9.206913285140415 82.66625877987849 2 -1 0
5348 1783 2 -0.35 10.903577531166196 7.170495961054314 85.16090023896284 1 -2 0
2033 678 2 -0.35 11.833743465996635 3.329393960270905 87.93626970531773 -1 -2 0
5561 1854 2 -0.35 11.052833206552915 5.346296742099214 80.87746692785728 1 0 0
3732 1244 2 -0.35 11.1036829525485 9.97883051425217 83.53858458929062 2 -1 0
5560 1854 1 0.7 12.0363492344067 5.901262608562449 80.62871939210336 1 0 0
5562 1854 2 -0.35 13.013757911660955 6.457443590351726 80.34641130554861 1 0 0
974 325 2 -0.35 12.50950810288418 2.2276112133887302 84.48144924475581 -1 0 0
3882 1294 2 -0.35 15.710387787860697 2.3618117720255745 81.19036739281421 1 -2 0
3880 1294 1 0.7 14.814636338158627 2.0256389576581215 80.55274146927546 1 -2 0
975 325 2 -0.35 13.25474153822423 0.008345089042485376 84.28915218205978 -1 0 0
973 325 1 0.7 12.907838593648442 1.1336076516758125 84.40472530346545 -1 0 0
5235 1745 2 -0.35 17.76364606405877 3.372846239795895 84.57785985878122 -1 -1 0
5233 1745 1 0.7 16.830174874198473 2.747009981385042 84.75195739912056 -1 -1 0
5234 1745 2 -0.35 15.781550194816575 2.256384880785595 84.91562810499319 -1 -1 0
2054 685 2 -0.35 16.7484980698372 4.946687255437863 82.18292921636524 2 1 0
2032 678 1 0.7 10.797081985434684 3.076231685728017 87.45075986180615 -1 -2 0
2053 685 1 0.7 17.839547282966485 5.31500398730177 82.261258927618 2 1 0
5347 1783 1 0.7 11.17739818741054 8.033166063429857 85.86207991797008 1 -2 0
476 159 2 -0.35 17.85119271303681 8.885828627239155 83.62548682610098 -6 -1 1
475 159 1 0.7 18.19191140240773 9.851630498950273 84.1530577598424 -6 -1 1
6879 2293 2 -0.35 13.498466430490371 7.0146312427689095 83.31505318693462 0 -1 1
2055 685 2 -0.35 18.99946926763915 5.6112490120959 82.28812106841399 2 1 0
2775 925 2 -0.35 19.7597629052059 2.7999606206233936 81.5260758637639 -7 -6 0
2841 947 2 -0.35 13.59638648359639 6.038284747352474 86.37783579320836 0 1 0
6877 2293 1 0.7 14.282017351931566 7.499195157154074 82.62163003145444 0 -1 1
2373 791 2 -0.35 18.357239851779244 4.766712830587637 87.26668855196796 2 1 0
2839 947 1 0.7 14.628263410873517 5.8080587889245106 85.92459937362149 0 1 0
6878 2293 2 -0.35 15.045714050575178 7.997794289918368 81.91312605969253 0 -1 1
2371 791 1 0.7 17.777389643787824 5.447889342578584 88.02382646725114 2 1 0
2840 947 2 -0.35 15.678281715552567 5.5440648816803675 85.47533092820163 0 1 0
1772 591 2 -0.35 15.445375438289062 3.2861613393937628 88.0860725275335 0 0 0
5349 1783 2 -0.35 11.511074205217293 8.898548752611015 86.55528060088749 1 -2 0
4352 1451 2 -0.35 15.883583011488358 9.320384433470243 87.16549275657815 -1 -2 -1
2773 925 1 0.7 20.154593455482384 2.5564384804233025 82.59007881064638 -7 -6 0
653 218 2 -0.35 2.102657689235543 12.014143230528765 79.88420769841021 4 -1 0
3979 1327 1 0.7 1.4743243076671888 15.722652921377307 79.76973365773436 1 -1 0
3981 1327 2 -0.35 1.769537880092373 16.008386424271556 80.88560359995492 1 -1 0
6906 2302 2 -0.35 7.558937641502017 11.458218371537082 80.87712281572772 2 0 0
834 278 2 -0.35 5.334149415070758 18.13416878923745 83.0007320686961 -2 1 1
6904 2302 1 0.7 6.9300087517562625 11.121103107513836 79.92744294244879 2 0 0
99 33 2 -0.35 8.319126271649257 14.308833599561083 82.43193846112496 3 0 0
907 303 1 0.7 0.928610855332556 10.6744408217898 82.5599537604385 0 -3 1
97 33 1 0.7 9.405313971084762 13.980070232062854 82.63946950627891 3 0 0
5236 1746 1 0.7 2.7091216090655617 11.710775973167744 86.39339456320766 2 2 0
4096 1366 1 0.7 4.269781002842735 12.724611043857855 82.36992460433395 0 -1 0
4098 1366 2 -0.35 4.725668685815874 13.777006281639919 82.28651090322825 0 -1 0
5825 1942 2 -0.35 8.030684205072216 10.927952889671777 84.08166104298327 3 0 0
4097 1366 2 -0.35 3.7941214849563387 11.669456029772679 82.45202016156013 0 -1 0
5960 1987 2 -0.35 0.7517216924242575 14.526013397646725 83.2419006672827 0 1 1
3961 1321 1 0.7 7.435269077148181 17.167894709525513 86.44571756537975 3 -3 0
5959 1987 1 0.7 0.677236703522546 15.443123418224129 83.95884800518286 0 1 1
3962 1321 2 -0.35 7.9669600396363975 16.58456041250016 87.28593433572655 3 -3 0
3963 1321 2 -0.35 6.88947017124894 17.709924515436004 85.56091549874984 3 -3 0
158 53 2 -0.35 4.072931220077138 15.749882022517475 86.68600620050984 2 -2 0
1761 587 2 -0.35 6.433570890847584 13.900150739835857 85.38456187091151 3 -1 0
1759 587 1 0.7 6.119628784240918 12.764046177111936 85.57665067709854 3 -1 0
1760 587 2 -0.35 5.839956391886361 11.621887660831895 85.70900186642398 3 -1 0
157 53 1 0.7 3.880653343854652 15.67045385594639 85.52862690091898 2 -2 0
832 278 1 0.7 6.468901401647877 17.98424792090704 82.84442888878775 -2 1 1
159 53 2 -0.35 3.614194332303011 15.550061918484088 84.41099465351914 2 -2 0
833 278 2 -0.35 7.610464931600034 17.99767682011818 82.67011417656086 -2 1 1
5238 1746 2 -0.35 2.9470839217413403 12.47267440228284 85.55260458029703 2 2 0
4691 1564 2 -0.35 9.325481531831212 11.527198286382287 88.15973389631976 0 0 0
909 303 2 -0.35 1.173929265968861 11.350446478187111 83.44792516569412 0 -3 1
5237 1746 2 -0.35 2.426945053935871 10.961429019370781 87.24994342979599 2 2 0
5037 1679 2 -0.35 0.9521588455488301 18.655616010226765 87.14491450008154 1 1 0
5961 1987 2 -0.35 0.5573440697690801 16.363747638054065 84.68496499280872 0 1 1
4968 1656 2 -0.35 9.770664641599275 18.066570076112566 79.95651463080515 0 0 0
5035 1679 1 0.7 0.6494544281823553 17.63277838993595 87.56591071295794 1 1 0
5036 1679 2 -0.35 0.40090470935174677 16.537148662696396 87.84764707483698 1 1 0
5529 1843 2 -0.35 9.79717534670614 19.856165606226952 84.21611690462169 -1 2 0
2015 672 2 -0.35 19.925202725206308 12.811688181656704 87.52030097328205 -10 -3 1
5460 1820 2 -0.35 11.279204422628151 14.005851543448022 79.68135757256128 3 -1 0
98 33 2 -0.35 10.475825140697435 13.646394370894523 82.94457495472956 3 0 0
4690 1564 1 0.7 10.301202194248667 12.121271253808219 88.29391466814478 0 0 0
4967 1656 2 -0.35 10.234499022591443 16.603318012104324 81.681323111367 0 0 0
1019 340 2 -0.35 13.58506062511902 12.27082553131229 80.14800368343732 2 1 0
1018 340 1 0.7 13.337076540818128 11.42916845854283 80.92573839329529 2 1 0
5528 1843 2 -0.35 11.164652472652076 19.62673424047226 82.36642396356807 -1 2 0
477 159 2 -0.35 18.63872975934553 10.727054353620867 84.75990691444323 -6 -1 1
5527 1843 1 0.7 10.458428872539745 19.702826420608112 83.29150657843923 -1 2 0
4966 1656 1 0.7 10.108435293036068 17.30875432508402 80.77567283558022 0 0 0
1020 340 2 -0.35 13.262880418194191 10.581320658933572 81.6993363002 2 1 0
6488 2163 2 -0.35 12.301751816680556 13.22574773607448 85.52278310353184 6 -1 0
6489 2163 2 -0.35 12.24025820840103 15.398779570988388 84.58693349519768 6 -1 0
1470 490 2 -0.35 19.16274874084568 12.163910215353384 80.21657999579699 -3 3 1
1307 436 2 -0.35 14.761289096548948 12.794774544462065 83.17514688223287 1 -1 0
1468 490 1 0.7 19.768060862487815 11.338904384576585 80.77558196823637 -3 3 1
1306 436 1 0.7 15.289585456144684 12.022256520656878 83.88674754599239 1 -1 0
1308 436 2 -0.35 15.805250081538773 11.151238275567906 84.43615492338166 1 -1 0
6487 2163 1 0.7 12.317335794211836 14.346544072080432 85.09767656385301 6 -1 0
4572 1524 2 -0.35 15.619441493095374 16.135597615989347 82.32200961853012 2 -3 0
3006 1002 2 -0.35 18.259208450109533 13.764020910601023 82.87942046181699 0 2 0
3237 1079 2 -0.35 14.020383918903894 18.06118340015873 86.1643163374397 -1 -1 0
3004 1002 1 0.7 18.508939886968612 14.843836649890648 82.60162394291426 0 2 0
3235 1079 1 0.7 12.845321602091403 18.03166869449889 86.19444863892426 -1 -1 0
3236 1079 2 -0.35 11.704147940014934 17.925678598063964 86.21933512471465 -1 -1 0
3005 1002 2 -0.35 18.74942682564463 15.913379706522097 82.30181938646285 0 2 0
3791 1264 2 -0.35 18.66483088867362 18.87272416652911 86.63717962837505 1 0 0
3790 1264 1 0.7 17.948976050702118 19.788275900826335 86.54690589615431 1 0 0
4570 1524 1 0.7 14.546804494334449 16.2933899291707 81.91438091336991 2 -3 0
4571 1524 2 -0.35 13.457299734552313 16.45186154312291 81.55957699942405 2 -3 0
2014 672 1 0.7 19.46298461085175 13.350579019627101 86.58963437832227 -10 -3 1
2016 672 2 -0.35 18.98281408955775 13.927712746946197 85.71268319647328 -10 -3 1
4353 1451 2 -0.35 14.559150270576824 11.169419694709767 87.6541225235164 -1 -2 -1
4351 1451 1 0.7 15.258749195440192 10.282209613303486 87.42232411262604 -1 -2 -1
6249 2083 2 -0.35 16.817523704473857 16.54251062549114 85.54880106856777 1 -2 0
2021 674 2 -0.35 17.92895832018477 18.726538580931287 81.6465438310227 4 -2 0
6247 2083 1 0.7 16.293873039687593 15.513863839514904 85.49104975621336 1 -2 0
6248 2083 2 -0.35 15.72603674119588 14.505881799015404 85.4157060443445 1 -2 0
6476 2159 2 -0.35 14.318003818267409 19.13249186521484 82.64136290329145 1 1 0
2020 674 1 0.7 17.689820161590355 19.23182735211188 82.68881371012685 4 -2 0
2022 674 2 -0.35 17.37979195927822 19.771407579672136 83.69174881131502 4 -2 0
1766 589 2 -0.35 14.170881338343971 15.373165897280554 88.26883935251874 1 0 0
3624 1208 2 -0.35 5.359953010032558 1.210933052523286 89.36849536589035 0 0 1
2900 967 2 -0.35 1.0272743445913828 8.684252767264265 89.27788231012318 -1 0 0
2699 900 2 -0.35 0.8918509910553614 8.299454218340887 95.58400689652056 2 1 0
4185 1395 2 -0.35 5.234236782033958 7.085270378721907 91.9856057124855 -1 0 1
4183 1395 1 0.7 5.761082538515225 6.768039441451491 90.98638475833413 -1 0 1
4184 1395 2 -0.35 6.168608016791723 6.38831018952088 89.97002473482509 -1 0 1
5667 1889 2 -0.35 0.8756614588873672 3.149775068411158 95.90805856902122 0 3 0
5665 1889 1 0.7 0.41121525485503463 2.2683873898365317 95.30452371466791 0 3 0
2698 900 1 0.7 1.3542271063604292 7.509256394559909 94.84172394893581 2 1 0
3718 1240 1 0.7 3.4835546558795683 2.0519045388272583 92.86595305542468 2 0 0
3719 1240 2 -0.35 2.8135762230896875 2.909852176915104 93.25629870412847 2 0 0
3119 1040 2 -0.35 7.5293204637144795 3.931067328142209 91.12169699812048 -2 8 0
3118 1040 1 0.7 7.914221244063525 3.327920685581474 90.20036144085803 -2 8 0
3120 1040 2 -0.35 8.337364377622196 2.6501035488874827 89.35399724634381 -2 8 0
915 305 2 -0.35 5.387179941760598 4.3355839718359865 93.20148697816471 -3 -2 0
5537 1846 2 -0.35 2.410347034197792 4.769908703765465 90.11304708361884 4 0 0
5536 1846 1 0.7 1.377405947410084 4.820839802626976 90.6615084730797 4 0 0
1437 479 2 -0.35 8.359740107596743 2.12752574802223 95.13090990688812 2 1 0
5538 1846 2 -0.35 0.3751945663541595 4.922929804292831 91.21706192436748 4 0 0
3746 1249 2 -0.35 8.21480391078797 0.860106455562275 91.80362152446081 0 -1 0
3141 1047 2 -0.35 8.649951135107372 6.761011902734227 96.30241340120946 3 -1 0
3139 1047 1 0.7 9.459039045053768 6.9730102611963085 95.4892606173383 3 -1 0
1435 479 1 0.7 9.06457322671218 2.838835261378117 94.54073606100738 2 1 0
913 305 1 0.7 6.322836106190096 4.985906973526701 93.47516949213502 -3 -2 0
914 305 2 -0.35 7.243544700150015 5.622640495731482 93.76854461850152 -3 -2 0
5108 1703 2 -0.35 3.8749912958067023 0.39826719412008527 96.66122146611183 -5 9 1
1436 479 2 -0.35 9.696701425865124 3.5822781175669105 93.90925310807377 2 1 0
5107 1703 1 0.7 4.634819187042248 0.9274300920192975 95.98513889589836 -5 9 1
5109 1703 2 -0.35 5.344035227716128 1.5221897229240777 95.27949418301532 -5 9 1
3720 1240 2 -0.35 4.177324832396842 1.2247870736002056 92.39542391479047 2 0 0
2700 900 2 -0.35 1.8531174672632185 6.720575190898601 94.14024654265931 2 1 0
5351 1784 2 -0.35 4.288030316564566 8.831548923267102 94.24815531434251 0 2 0
2899 967 1 0.7 2.1010911907328857 8.261716019884668 89.32202000277248 -1 0 0
2901 967 2 -0.35 3.171590387451013 7.824540577540974 89.28257620556596 -1 0 0
774 258 2 -0.35 7.704510422531649 8.802191985504251 91.94817838633456 1 0 0
1716 572 2 -0.35 0.7709341703251826 1.1933099128727633 91.50303438029508 7 -1 1
5350 1784 1 0.7 4.874893201490654 9.668762953841119 93.67633191692515 0 2 0
416 139 2 -0.35 9.99091591834841 5.820817852095374 90.56407960675897 -1 -1 0
772 258 1 0.7 7.886036406195629 9.923249923499593 91.69449446739422 1 0 0
415 139 1 0.7 9.978556329366782 6.940608386884377 90.30578278722922 -1 -1 0
417 139 2 -0.35 9.912273708754078 8.084778231336164 89.99454347282074 -1 -1 0
1367 456 2 -0.35 5.2983426224543 9.98570789055839 90.19400348606968 1 -2 0
2945 982 2 -0.35 8.348405005371173 9.908461574329495 95.57495624478246 2 2 0
3623 1208 2 -0.35 3.1713510009823276 0.6821460157870202 88.71845095921742 0 0 1
3622 1208 1 0.7 4.284840241270386 0.9196816133011365 89.0666097330006 0 0 1
6651 2217 2 -0.35 4.272909548736517 6.02540722421146 96.12975185671628 -2 2 0
6649 2217 1 0.7 3.66162870714208 6.645904978907788 96.89065459206213 -2 2 0
2372 791 2 -0.35 17.245805050185382 6.153954206754996 88.79229831492695 2 1 0
6892 2298 1 0.7 19.558977917398234 4.1259879439793865 91.79335034647487 -1 6 1
1771 591 1 0.7 15.00978331518791 2.2451615031663223 88.36915062516849 0 0 0
3140 1047 2 -0.35 10.205969073552266 7.088883941711067 94.6111577431071 3 -1 0
6893 2298 2 -0.35 19.26319779374307 4.143578078229289 90.66026097151197 -1 6 1
4846 1616 1 0.7 15.664506662209101 2.8399555373456313 92.05473167006576 -1 1 0
5445 1815 2 -0.35 18.40922042297969 1.1806530555491166 92.63499935973307 2 -4 1
4848 1616 2 -0.35 15.838960691796789 1.9571758421786334 91.34048920935771 -1 1 0
5850 1950 2 -0.35 11.185828716062229 1.362972737555286 91.70458805771773 2 1 0
1977 659 2 -0.35 15.521963845120146 7.444671795054014 94.13287380730256 0 0 0
1975 659 1 0.7 16.234180003369563 6.956048182377699 93.36639927840012 0 0 0
1773 591 2 -0.35 14.6257078210763 1.1502754294832027 88.61750449779592 0 0 0
1171 391 1 0.7 13.155888534578171 5.224635131456093 90.21842210503344 0 -2 0
1172 391 2 -0.35 13.234106219984822 4.107346599226128 90.50831008444688 0 -2 0
1173 391 2 -0.35 13.01709821875095 6.303823577499562 89.86598484416152 0 -2 0
5849 1950 2 -0.35 12.955140194294241 1.4526343522460026 93.20696889610699 2 1 0
5848 1950 1 0.7 12.105883267469473 1.4302342074744367 92.39729057321554 2 1 0
1976 659 2 -0.35 16.99724424559871 6.459029358579718 92.65739023219616 0 0 0
2913 971 2 -0.35 15.653869239892897 1.489885764617471 94.78117993974811 -4 -2 1
3041 1014 2 -0.35 12.703994209308815 8.340094316271594 92.7319226590135 1 0 0
6790 2264 1 0.7 15.280942520918646 8.983131940275202 96.8977186951575 2 4 1
4847 1616 2 -0.35 15.432336416503833 3.6999289695709536 92.80424902535592 -1 1 0
3040 1014 1 0.7 12.693725247376245 7.21669611924539 93.00637779322233 1 0 0
2006 669 2 -0.35 14.198571429429832 4.7696030541733245 95.76619848365404 1 3 0
2005 669 1 0.7 13.593110056556759 5.330975603823226 96.58145374826493 1 3 0
5695 1899 1 0.7 18.115294060560604 3.9729055386158256 95.4971313921841 1 0 0
1009 337 1 0.7 18.977375997719705 9.838599968807276 94.71069325270862 3 -1 0
5696 1899 2 -0.35 18.68984384145459 3.0804743393022975 95.99630732115533 1 0 0
1011 337 2 -0.35 18.22078817757454 9.472497591767441 93.95006031914967 3 -1 0
6792 2264 2 -0.35 14.304878032378543 9.540468390199162 96.64028991033334 2 4 1
5697 1899 2 -0.35 17.590807595223616 4.889656668175244 95.03474203080343 1 0 0
3042 1014 2 -0.35 12.657595556737537 6.0621196199105265 93.21810795783185 1 0 0
1556 519 2 -0.35 17.87236391019449 9.347024351596565 89.69484936912635 0 -3 0
1555 519 1 0.7 16.982640084239808 8.767892265668724 90.10521396827102 0 -3 0
2911 971 1 0.7 15.044332829141043 1.3697943758707518 95.77722479581291 -4 -2 1
1557 519 2 -0.35 16.03003186216447 8.181389387343948 90.42650854665426 0 -3 0
6894 2298 2 -0.35 19.76186697646789 4.020648039885883 92.92375635223837 -1 6 1
2912 971 2 -0.35 14.4552414772335 1.3012849522255947 96.78640557581458 -4 -2 1
5443 1815 1 0.7 18.284362535101817 0.022708102362820247 92.6440019450138 2 -4 1
2777 926 2 -0.35 18.05420856631605 0.487630088654214 89.52669501551331 -1 0 1
2649 883 2 -0.35 0.6910150349130881 16.908169640480683 96.65486378387476 0 -4 0
2647 883 1 0.7 0.4795864698791555 17.647460859231163 95.77190949162066 0 -4 0
2082 694 2 -0.35 9.314513691314033 19.917720987380214 91.01307200583784 1 1 0
5504 1835 2 -0.35 8.485373658603987 14.11431020907045 88.84373331813737 0 -2 0
5202 1734 2 -0.35 5.293823843367317 17.851200686401675 88.47064338589735 1 -3 0
4418 1473 2 -0.35 0.06999434677551444 19.75054298024016 89.77687320637703 1 -5 0
5352 1784 2 -0.35 5.505206559380497 10.49344144385332 93.11436782830143 0 2 0
5503 1835 1 0.7 7.478000275521099 14.646517591918148 89.09255983791994 0 -2 0
5200 1734 1 0.7 4.191829245387372 17.645330686012713 88.76650639574652 1 -3 0
5201 1734 2 -0.35 3.053265231254727 17.54985622249458 88.98593101337049 1 -3 0
2322 774 2 -0.35 2.4437636014373494 11.018730579290768 93.65650578007819 1 0 0
6017 2006 2 -0.35 3.230559693653192 13.862007757125054 88.84712565977142 -1 1 0
5505 1835 2 -0.35 6.468722004543531 15.148956744412525 89.37422544675933 0 -2 0
3607 1203 1 0.7 1.963479801556948 17.49215955997787 92.17336635310039 -3 0 1
6018 2006 2 -0.35 2.9985612588478623 15.281176728725436 90.66549685238488 -1 1 0
6016 2006 1 0.7 3.134736656568311 14.609775663305374 89.72039395412287 -1 1 0
3609 1203 2 -0.35 0.982794905504029 17.565830821713703 91.57130262561024 -3 0 1
3612 1204 2 -0.35 0.21379270685386315 13.12917288629241 95.94008744540986 0 0 0
5371 1791 1 0.7 0.3939970097993788 12.401323531440871 91.33768303493632 1 2 0
1366 456 1 0.7 5.754917094994138 10.858644829223152 89.58599496111479 1 -2 0
3566 1189 2 -0.35 5.868210431487285 13.436420768099172 94.21119884472901 1 1 0
3565 1189 1 0.7 5.8177872480752875 13.252232112008961 93.07268280042277 1 1 0
1368 456 2 -0.35 6.135168382702353 11.742248029856345 88.91296343958747 1 -2 0
3567 1189 2 -0.35 5.645785261754686 13.223689252047182 91.93588119376896 1 1 0
6835 2279 1 0.7 2.356772991681184 14.75611726079304 93.98980657077261 3 17 1
6837 2279 2 -0.35 2.89520803839666 13.969407924957611 93.37853093168172 3 17 1
6836 2279 2 -0.35 1.7887299879224072 15.593149779383118 94.59810385775923 3 17 1
3156 1052 2 -0.35 5.916618956229417 16.16533766037015 92.34887311522395 1 0 0
5373 1791 2 -0.35 0.8475088669145164 12.67526710069496 90.31862755854442 1 2 0
3154 1052 1 0.7 6.473772222699008 17.1604260591763 92.06127683635695 1 0 0
2320 774 1 0.7 2.7770281500511467 11.533389606794591 94.62885720233616 1 0 0
773 258 2 -0.35 7.944201324087194 11.010804608883722 91.34125692172871 1 0 0
3608 1203 2 -0.35 2.989298136597887 17.454795596139398 92.69871445873912 -3 0 1
3155 1052 2 -0.35 6.983767095441373 18.19087507755603 91.85409606654356 1 0 0
630 210 2 -0.35 8.628889459874763 14.867320047519229 92.22325177579584 -3 -4 0
2944 982 1 0.7 8.509047470014398 10.671893210375643 96.4372484702582 2 2 0
4532 1511 2 -0.35 6.828387600691239 15.188890387295595 96.73270670893466 1 -2 0
4533 1511 2 -0.35 8.18291494431394 16.279878521792416 95.22352653040164 1 -2 0
4531 1511 1 0.7 7.496329411201624 15.716566414881328 95.97361102263748 1 -2 0
628 210 1 0.7 9.677925048272487 14.469669426905307 91.85887880116594 -3 -4 0
1461 487 2 -0.35 5.465023035502968 17.63466287706943 95.38875345743163 2 -4 0
1459 487 1 0.7 4.546489409015715 18.173529646768515 95.78506878672984 2 -4 0
1460 487 2 -0.35 3.5881417386337677 18.620835894888618 96.2251044660208 2 -4 0
2321 774 2 -0.35 3.1027371545757916 12.091065567833352 95.59978358502222 1 0 0
2648 883 2 -0.35 0.2438801880018537 18.39637462941707 94.8959939339582 0 -4 0
1595 532 2 -0.35 9.631654479248219 12.696007819708893 94.40848741319613 3 3 1
5141 1714 2 -0.35 5.793337306138197 12.245073069522615 96.99911414024646 0 -1 0