LAMMPS (29 Aug 2024 - Update 1)
  using 1 OpenMP thread(s) per MPI task
using multi-threaded neighbor list subroutines
Created orthogonal box = (0 0 0) to (40 40 240)
  2 by 2 by 3 MPI processor grid
Read molecule template co2mol:
# CO2 molecule file. TraPPE-Flex model.
  1 molecules
  0 fragments
  3 atoms with max type 2
  2 bonds with max type 1
  1 angles with max type 1
  0 dihedrals with max type 0
  0 impropers with max type 0
Molecule file loaded successfully
Created 6894 atoms
  using lattice units in orthogonal box = (0 0 0) to (40 40 240)
  create_atoms CPU = 0.441 seconds
Created 78 atoms
  using lattice units in orthogonal box = (0 0 0) to (40 40 240)
  create_atoms CPU = 0.002 seconds
Created 78 atoms
  using lattice units in orthogonal box = (0 0 0) to (40 40 240)
  create_atoms CPU = 0.002 seconds
Setting atom values ...
  2350 settings made for charge
Setting atom values ...
  4700 settings made for charge
lz=240
2350 atoms in group car
4700 atoms in group oxy
Balancing ...
PPPM initialization ...
  using 12-bit tables for long-range coulomb (src/kspace.cpp:342)
  G vector (1/distance) = 0.20169663
  grid = 24 24 80
  stencil order = 5
  estimated absolute RMS force accuracy = 0.00286774
  estimated relative force accuracy = 8.6361139e-06
  using single precision FFTW3
  3d grid and FFT values/proc = 11913 4032
Generated 1 of 1 mixed pair_coeff terms from arithmetic mixing rule
Last active /omp style is kspace_style pppm/omp
Neighbor list info ...
  update: every = 1 steps, delay = 0 steps, check = yes
  max neighbors/atom: 2000, page size: 100000
  master list distance cutoff = 17
  ghost atom cutoff = 17
  binsize = 8.5, bins = 5 5 29
  1 neighbor lists, perpetual/occasional/extra = 1 0 0
  (1) pair lj/cut/coul/long/omp, perpetual
      attributes: half, newton on, omp
      pair build: half/bin/newton/omp
      stencil: half/bin/3d
      bin: standard
 rebalancing time: 0.008 seconds
  iteration count = 12
  initial/final maximal load/proc = 1567 666
  initial/final imbalance factor  = 2.667234 1.133617
  x cuts: 0 0.46875 1
  y cuts: 0 0.46875 1
  z cuts: 0 0.4375 0.5625 1
PPPM initialization ...
  using 12-bit tables for long-range coulomb (src/kspace.cpp:342)
  G vector (1/distance) = 0.20169663
  grid = 24 24 80
  stencil order = 5
  estimated absolute RMS force accuracy = 0.00286774
  estimated relative force accuracy = 8.6361139e-06
  using single precision FFTW3
  3d grid and FFT values/proc = 16400 5915
Generated 1 of 1 mixed pair_coeff terms from arithmetic mixing rule
Last active /omp style is kspace_style pppm/omp
Setting up cg style minimization ...
  Unit style    : real
  Current step  : 0
Per MPI rank memory allocation (min/avg/max) = 9.581 | 10.01 | 10.59 Mbytes
   Step          Temp          E_pair         E_mol          TotEng         Press     
         0   0              49336.872      7.9026918e-12  49336.872      43177.231    
      3828   0             -12019.881      22.079741     -11997.802     -273.86908    
Loop time of 69.3561 on 12 procs for 3828 steps with 7050 atoms

99.4% CPU use with 12 MPI tasks x 1 OpenMP threads

Minimization stats:
  Stopping criterion = energy tolerance
  Energy initial, next-to-last, final = 
      49336.8715560811   -11997.790489537  -11997.8015228999
  Force two-norm initial, final = 12256.268 9.4285058
  Force max component initial, final = 805.65186 1.3408178
  Final line search alpha, max atom move = 0.044648039 0.059864887
  Iterations, force evaluations = 3828 7607

MPI task timing breakdown:
Section |  min time  |  avg time  |  max time  |%varavg| %total
---------------------------------------------------------------
Pair    | 35.922     | 49.024     | 60.654     |  98.1 | 70.68
Bond    | 0.12896    | 0.14379    | 0.16075    |   2.3 |  0.21
Kspace  | 6.5955     | 18.308     | 31.47      | 161.1 | 26.40
Neigh   | 0.38463    | 0.38575    | 0.38714    |   0.1 |  0.56
Comm    | 1.0595     | 1.1819     | 1.3085     |   7.5 |  1.70
Output  | 0          | 0          | 0          |   0.0 |  0.00
Modify  | 0.047816   | 0.059925   | 0.083053   |   4.4 |  0.09
Other   |            | 0.2531     |            |       |  0.36

Nlocal:          587.5 ave         749 max         470 min
Histogram: 1 1 4 1 1 1 0 2 0 1
Nghost:        7609.83 ave       11090 max        5756 min
Histogram: 5 3 0 0 0 0 0 1 2 1
Neighs:         320892 ave      451897 max      205667 min
Histogram: 2 1 1 1 2 1 0 3 0 1

Total # of neighbors = 3850704
Ave neighs/atom = 546.19915
Ave special neighs/atom = 2
Neighbor list builds = 38
Dangerous builds = 0
System init for write_data ...
PPPM initialization ...
  using 12-bit tables for long-range coulomb (src/kspace.cpp:342)
  G vector (1/distance) = 0.20169663
  grid = 24 24 80
  stencil order = 5
  estimated absolute RMS force accuracy = 0.00286774
  estimated relative force accuracy = 8.6361139e-06
  using single precision FFTW3
  3d grid and FFT values/proc = 16400 5915
Generated 1 of 1 mixed pair_coeff terms from arithmetic mixing rule
Last active /omp style is kspace_style pppm/omp
#Step Pxx Pyy Pzz
#Step temp press ke pe etotal ecouple econserve
#Step px py pz COM_vx COM_vy COM_vz
PPPM initialization ...
  using 12-bit tables for long-range coulomb (src/kspace.cpp:342)
  G vector (1/distance) = 0.20169663
  grid = 24 24 80
  stencil order = 5
  estimated absolute RMS force accuracy = 0.00286774
  estimated relative force accuracy = 8.6361139e-06
  using single precision FFTW3
  3d grid and FFT values/proc = 16400 5915
Generated 1 of 1 mixed pair_coeff terms from arithmetic mixing rule
Last active /omp style is kspace_style pppm/omp
Setting up Verlet run ...
  Unit style    : real
  Current step  : 0
  Time step     : 0.5
Per MPI rank memory allocation (min/avg/max) = 9.201 | 9.486 | 9.827 Mbytes
   Step         TotEng         Press           Temp            Dt      
         0  -7375.2209      276.41395      220            0.5          
      1000  -3301.3622      1482.4392      219.67712      0.5          
      2000  -2767.9969      1278.7859      199.75885      0.5          
      3000  -2323.4888     -350.03103      214.30932      0.5          
      4000  -2205.6974      23.933985      225.36467      0.5          
      5000  -2114.7022      190.84117      221.43315      0.5          
      6000  -1784.5176     -264.57235      216.27992      0.5          
      7000  -1637.5496     -367.67472      213.31408      0.5          
      8000  -1481.1557     -315.60615      214.90694      0.5          
      9000  -1268.6294     -81.371775      221.86027      0.5          
     10000  -1035.132       28.680725      219.48731      0.5          
     11000  -800.51277     -93.807587      217.59549      0.5          
     12000  -814.49404     -176.60626      220.10341      0.5          
     13000  -614.9153      -305.88667      225.53222      0.5          
     14000  -593.66411     -386.00851      222.59434      0.5          
     15000  -593.52495     -178.24777      221.96172      0.5          
     16000  -585.74818      131.45251      218.63162      0.5          
     17000  -636.20739      3.2406122      219.07385      0.5          
     18000  -710.27317     -8.8989565      221.27853      0.5          
     19000  -775.66174     -125.86091      217.56538      0.5          
     20000  -855.22867      99.209325      221.30639      0.5          
     21000  -994.56361      232.3264       219.68912      0.5          
     22000  -1025.7164      56.956452      218.64966      0.5          
     23000  -1036.3868      16.389001      218.59445      0.5          
     24000  -1002.2397      83.650365      216.98415      0.5          
     25000  -999.69285     -5.5341783      220.98333      0.5          
     26000  -963.90123     -245.02358      220.15599      0.5          
     27000  -987.60662      117.26295      218.93161      0.5          
     28000  -983.98067      81.835738      220.55251      0.5          
     29000  -907.82061     -213.21575      218.51026      0.5          
     30000  -921.70319     -282.28131      218.69085      0.5          
     31000  -744.5212       28.206906      222.22417      0.5          
     32000  -884.41119     -192.51584      217.16876      0.5          
     33000  -928.02648     -281.02979      217.47373      0.5          
     34000  -759.77325      138.81501      225.55605      0.5          
     35000  -905.22937      11.562602      219.35173      0.5          
     36000  -976.69469      90.026137      215.05827      0.5          
     37000  -948.09576      55.276555      219.6643       0.5          
     38000  -834.60397     -162.34997      221.16611      0.5          
     39000  -864.14046      31.428034      221.80724      0.5          
     40000  -899.45814     -62.306915      218.6294       0.5          
     41000  -834.87037      106.73858      222.693        0.5          
     42000  -827.34237     -149.59719      222.97652      0.5          
     43000  -673.05177      158.87371      222.93426      0.5          
     44000  -749.96375      202.94179      221.12901      0.5          
     45000  -757.15129      101.17022      220.51451      0.5          
     46000  -713.87493     -102.35004      221.61507      0.5          
     47000  -694.48254     -415.47729      220.65798      0.5          
     48000  -752.78933      47.614004      222.95278      0.5          
     49000  -776.46778     -4.5201661      221.395        0.5          
     50000  -747.32893      106.09867      219.99092      0.5          
     51000  -886.14258     -9.9062001      217.25094      0.5          
     52000  -865.08601     -188.70938      219.31353      0.5          
     53000  -915.64093     -154.75315      218.78206      0.5          
     54000  -813.58687      73.519341      221.28127      0.5          
     55000  -1032.8894      33.405287      214.23182      0.5          
     56000  -956.99955      13.645539      218.3323       0.5          
     57000  -827.28965     -38.69941       221.73481      0.5          
     58000  -850.59348      6.7450044      222.59191      0.5          
     59000  -957.45153     -218.84409      218.26935      0.5          
     60000  -986.62322      9.5820669      214.90509      0.5          
     61000  -881.33027      107.28941      219.72797      0.5          
     62000  -886.73947     -302.95404      218.77531      0.5          
     63000  -864.36322     -147.03011      216.74695      0.5          
     64000  -661.59055      128.57132      223.46267      0.5          
     65000  -779.70037     -32.656145      221.23639      0.5          
     66000  -895.04094     -88.013609      215.24743      0.5          
     67000  -955.45039     -48.864079      218.76246      0.5          
     68000  -838.74513     -246.88204      217.58064      0.5          
     69000  -757.05663     -104.86754      220.29543      0.5          
     70000  -754.7367       112.01586      221.39827      0.5          
     71000  -792.48331     -102.74903      223.14983      0.5          
     72000  -892.5918       85.099256      219.05297      0.5          
     73000  -912.11026      45.539835      219.97701      0.5          
     74000  -767.83509     -88.894648      223.60954      0.5          
     75000  -940.22222      23.113075      216.24194      0.5          
     76000  -978.74687      133.53515      218.36463      0.5          
     77000  -1000.0973     -298.87514      216.65317      0.5          
     78000  -948.67233      102.90787      220.54045      0.5          
     79000  -979.59003      236.44783      220.09878      0.5          
     80000  -967.64318      17.006866      219.35837      0.5          
     81000  -961.43195      43.275181      218.79875      0.5          
     82000  -867.94357      361.79027      222.30882      0.5          
     83000  -964.03457     -125.28947      219.26331      0.5          
     84000  -959.33586     -174.17849      219.20155      0.5          
     85000  -939.45585      13.861568      220.84474      0.5          
     86000  -1037.5117     -216.02746      217.64257      0.5          
     87000  -934.7394      -63.426034      222.63298      0.5          
     88000  -974.59423      105.09868      220.2221       0.5          
     89000  -1077.2064     -9.8453813      220.35095      0.5          
     90000  -1084.8993     -345.68011      219.13781      0.5          
     91000  -1089.6106     -146.0268       220.46117      0.5          
     92000  -1009.1592      284.4527       220.82764      0.5          
     93000  -1070.8632      449.09089      218.89615      0.5          
     94000  -1089.88       -69.424494      220.00284      0.5          
     95000  -1137.0581     -261.7175       218.6408       0.5          
     96000  -1229.2286      228.17788      219.14721      0.5          
     97000  -1110.7422      348.17216      221.57997      0.5          
     98000  -1101.8693      112.22755      222.27459      0.5          
     99000  -1275.0063      36.06577       220.44795      0.5          
    100000  -1278.1446      208.80048      217.06395      0.5          
    101000  -1226.1751      224.60272      221.53484      0.5          
    102000  -1269.8667      109.37375      220.01253      0.5          
    103000  -1160.5112     -116.41741      221.56056      0.5          
    104000  -1202.3541     -117.19729      220.56532      0.5          
    105000  -1193.2263      161.98306      218.28206      0.5          
    106000  -1271.1523      231.15116      222.08078      0.5          
    107000  -1216.4        -10.236543      219.44067      0.5          
    108000  -1169.0462     -45.871718      223.02507      0.5          
    109000  -1205.0995     -172.75028      220.88881      0.5          
    110000  -1145.0586     -9.2071205      218.13115      0.5          
    111000  -1076.7232      150.08811      219.4956       0.5          
    112000  -1117.3506     -24.044001      220.12872      0.5          
    113000  -1183.1105     -94.339474      216.56477      0.5          
    114000  -887.26134      51.251024      225.68357      0.5          
    115000  -943.82783      97.711764      219.9798       0.5          
    116000  -940.35364     -244.41224      221.58561      0.5          
    117000  -853.94365     -145.36846      222.12413      0.5          
    118000  -939.33056     -123.26194      219.24007      0.5          
    119000  -899.65794     -405.66945      219.13478      0.5          
    120000  -806.00827     -26.826179      222.36336      0.5          
    121000  -831.7155       124.50807      220.19606      0.5          
    122000  -906.22171     -171.64206      220.3426       0.5          
    123000  -721.75899     -32.57596       223.32537      0.5          
    124000  -863.13049      161.1856       218.49102      0.5          
    125000  -898.2173      -153.10902      217.89448      0.5          
    126000  -924.22037      70.888292      217.66691      0.5          
    127000  -960.9033       359.00118      217.66933      0.5          
    128000  -862.87959     -483.52509      220.12143      0.5          
    129000  -940.48282     -213.89268      219.28351      0.5          
    130000  -782.45013      363.15726      222.15807      0.5          
    131000  -778.975        21.790287      224.72792      0.5          
    132000  -940.09066     -230.74692      219.06811      0.5          
    133000  -1023.8059     -28.208541      219.44449      0.5          
    134000  -1126.6766     -105.24312      215.42679      0.5          
    135000  -1057.2974      132.92544      217.06609      0.5          
    136000  -905.23581     -70.048787      220.90855      0.5          
    137000  -973.6035      -13.540255      224.18673      0.5          
    138000  -1041.3278      195.64404      220.83084      0.5          
    139000  -974.7457       276.32229      223.80262      0.5          
    140000  -880.42198     -74.826283      222.70026      0.5          
    141000  -1037.7072      20.273056      220.90862      0.5          
    142000  -1084.9595      129.06087      222.53683      0.5          
    143000  -1142.8434     -15.867196      216.9419       0.5          
    144000  -999.30311      48.243025      222.1477       0.5          
    145000  -1126.7107     -211.07048      221.04968      0.5          
    146000  -1112.7503     -45.975399      220.4239       0.5          
    147000  -1080.9342     -46.819134      219.5188       0.5          
    148000  -934.63076      164.69025      220.84379      0.5          
    149000  -823.5179      -116.92062      226.04884      0.5          
    150000  -985.74158     -451.67123      221.84263      0.5          
    151000  -902.6201       119.82643      222.58791      0.5          
    152000  -972.85969      21.304113      221.69132      0.5          
    153000  -1063.3161     -32.242934      218.41666      0.5          
    154000  -1017.8016     -335.45952      216.27117      0.5          
    155000  -1018.361       104.42013      218.44404      0.5          
    156000  -1010.0877      271.99666      217.55253      0.5          
    157000  -983.99409     -14.019585      219.71562      0.5          
    158000  -852.81584     -22.592725      222.82978      0.5          
    159000  -1000.1928      34.633914      219.35304      0.5          
    160000  -1017.106      -172.67851      217.91799      0.5          
    161000  -970.9751      -253.94863      218.64387      0.5          
    162000  -868.11526      50.853375      222.01896      0.5          
    163000  -917.26014      226.29925      223.27183      0.5          
    164000  -858.99093     -102.44232      219.59098      0.5          
    165000  -831.41664     -240.95812      223.32963      0.5          
    166000  -912.07458      74.723291      222.28589      0.5          
    167000  -971.53309     -124.43534      217.56548      0.5          
    168000  -940.21899     -172.53679      219.06105      0.5          
    169000  -857.5557       64.575441      224.08558      0.5          
    170000  -960.23029      55.687682      220.11327      0.5          
    171000  -959.39234      59.144052      220.08759      0.5          
    172000  -956.07805      18.482626      220.84031      0.5          
    173000  -933.56724     -91.242256      219.41226      0.5          
    174000  -970.1395      -132.74313      219.05953      0.5          
    175000  -917.49059     -31.26934       223.44818      0.5          
    176000  -958.65308     -149.91252      223.57729      0.5          
    177000  -985.35858     -8.3440665      219.75023      0.5          
    178000  -1020.9235      6.6940793      219.33676      0.5          
    179000  -973.61872      39.767807      221.82454      0.5          
    180000  -1041.0796      13.013103      217.69101      0.5          
    181000  -1040.631      -43.667972      219.99329      0.5          
    182000  -1051.7193     -113.01588      220.68743      0.5          
    183000  -1028.3547     -16.802246      220.76631      0.5          
    184000  -1008.1662     -70.590722      220.18267      0.5          
    185000  -977.45066     -64.382208      222.46262      0.5          
    186000  -911.36621      47.447809      222.13238      0.5          
    187000  -1070.5398      178.02442      218.72496      0.5          
    188000  -920.37733      78.702619      222.00079      0.5          
    189000  -993.01499     -74.966356      218.94402      0.5          
    190000  -1041.4138      195.7587       216.93573      0.5          
    191000  -1053.4485     -110.28182      219.23893      0.5          
    192000  -994.10461     -300.12217      221.82751      0.5          
    193000  -870.43092     -109.78032      221.239        0.5          
    194000  -802.01644      330.3033       222.63711      0.5          
    195000  -961.0067       42.495673      219.24846      0.5          
    196000  -961.09047     -245.61578      220.78706      0.5          
    197000  -1044.7202      42.514797      219.6781       0.5          
    198000  -938.12602     -20.545477      220.14717      0.5          
    199000  -981.60488     -77.756077      216.9048       0.5          
    200000  -956.24029      51.694802      220.38313      0.5          
    201000  -971.04058     -37.70709       220.48748      0.5          
    202000  -950.65372      145.7226       220.18329      0.5          
    203000  -925.2703       90.289784      218.44021      0.5          
    204000  -926.48856     -147.7826       217.51002      0.5          
    205000  -836.80023      33.954884      223.3681       0.5          
    206000  -853.24015      308.72182      223.51186      0.5          
    207000  -963.55522     -125.11243      216.91102      0.5          
    208000  -922.73548     -192.67184      218.90742      0.5          
    209000  -974.02373     -263.74387      217.94527      0.5          
    210000  -926.84795     -26.246212      216.87901      0.5          
    211000  -958.26911     -229.84741      218.26487      0.5          
    212000  -839.54392     -202.09248      221.20436      0.5          
    213000  -886.76823      213.90777      220.29488      0.5          
    214000  -1007.4345      12.859666      216.96996      0.5          
    215000  -898.32232     -163.09459      221.21297      0.5          
    216000  -960.17424     -75.489628      218.21252      0.5          
    217000  -905.99396      66.524536      220.21358      0.5          
    218000  -903.19498     -10.879536      221.5362       0.5          
    219000  -1080.0008     -119.96609      218.36665      0.5          
    220000  -1009.0033     -87.822285      221.03863      0.5          
    221000  -998.91514     -76.32482       218.05162      0.5          
    222000  -1009.696      -232.47108      218.70039      0.5          
    223000  -937.44305      100.28361      221.96859      0.5          
    224000  -1047.9153      77.154515      219.88161      0.5          
    225000  -982.95369      74.552713      224.11412      0.5          
    226000  -1002.2533     -134.44074      218.99274      0.5          
    227000  -981.50404      113.98726      222.57496      0.5          
    228000  -1174.3144      33.498927      216.94206      0.5          
    229000  -1068.5452     -33.191013      218.43562      0.5          
    230000  -1061.3939      175.46784      221.23359      0.5          
    231000  -1079.3726      161.10709      219.60936      0.5          
    232000  -1023.2124     -45.444839      220.80229      0.5          
    233000  -1062.6985     -297.94796      222.08475      0.5          
    234000  -1132.7321      403.76754      219.41488      0.5          
    235000  -1070.4212      508.33034      221.43976      0.5          
    236000  -1054.7742     -24.92568       221.49734      0.5          
    237000  -1175.8017      61.616104      218.42617      0.5          
    238000  -1084.2562      10.978109      218.6901       0.5          
    239000  -1050.5146      56.326178      218.44557      0.5          
    240000  -999.16859      190.99811      222.71981      0.5          
    241000  -914.55589     -101.62473      224.18542      0.5          
    242000  -1007.0974     -285.81692      219.96867      0.5          
    243000  -975.93004      58.103289      219.06666      0.5          
    244000  -855.97072      216.74295      222.07236      0.5          
    245000  -829.9124      -57.465866      226.82936      0.5          
    246000  -970.39931     -51.743926      218.10948      0.5          
    247000  -856.15395      50.102822      218.67814      0.5          
    248000  -890.66091      60.696545      218.62359      0.5          
    249000  -890.15845      48.063933      221.50729      0.5          
    250000  -804.67925     -364.05713      218.77078      0.5          
    251000  -916.19197     -149.61759      215.82618      0.5          
    252000  -913.08615     -211.91308      220.72128      0.5          
    253000  -825.20501     -328.82332      222.14293      0.5          
    254000  -817.04838      121.14154      223.57191      0.5          
    255000  -884.15893      157.50832      217.24197      0.5          
    256000  -825.25664     -188.24937      221.53786      0.5          
    257000  -792.26537      31.960629      222.62102      0.5          
    258000  -824.628       -90.191015      221.0609       0.5          
    259000  -822.4255      -42.036104      219.32494      0.5          
    260000  -894.75742     -46.199193      219.21709      0.5          
    261000  -955.06647     -237.73336      219.75782      0.5          
    262000  -890.09905      153.11571      222.31308      0.5          
    263000  -859.67236      422.10588      220.28961      0.5          
    264000  -818.79777      86.095007      222.69454      0.5          
    265000  -914.673        7.0594829      221.66407      0.5          
    266000  -1085.1489     -59.662227      217.67735      0.5          
    267000  -974.77478      60.297838      220.13603      0.5          
    268000  -916.33415      179.07459      221.20226      0.5          
    269000  -893.07441      361.58874      221.78722      0.5          
    270000  -916.48955     -61.113039      221.01096      0.5          
    271000  -849.25056     -176.88075      224.94732      0.5          
    272000  -960.14113     -160.10535      219.84726      0.5          
    273000  -978.13451     -16.579585      217.62014      0.5          
    274000  -989.12718      268.37655      218.8758       0.5          
    275000  -978.63888      39.8767        223.3657       0.5          
    276000  -1025.5343     -203.29477      219.43176      0.5          
    277000  -858.06197      28.195409      222.3011       0.5          
    278000  -955.67749      269.96391      220.664        0.5          
    279000  -943.13441     -199.34694      220.24767      0.5          
    280000  -1057.972      -283.92505      219.23407      0.5          
    281000  -906.10909     -96.151073      219.75126      0.5          
    282000  -1066.4096     -111.92394      215.06377      0.5          
    283000  -904.00277      257.42023      219.58871      0.5          
    284000  -977.35162     -7.1842301      219.48583      0.5          
    285000  -871.67446     -8.2700795      223.19541      0.5          
    286000  -1008.8681      7.9577906      220.07212      0.5          
    287000  -854.03382     -166.41966      221.85571      0.5          
    288000  -885.70566      85.36345       220.81201      0.5          
    289000  -943.19399     -40.293762      219.41591      0.5          
    290000  -1021.6387     -57.950123      218.87738      0.5          
    291000  -852.71117      176.19884      221.55275      0.5          
    292000  -887.82904     -317.31326      220.12259      0.5          
    293000  -919.20729     -101.55577      218.04953      0.5          
    294000  -1051.2415      94.90574       216.70772      0.5          
    295000  -908.33471     -62.826131      219.2661       0.5          
    296000  -969.41366     -258.28484      221.10318      0.5          
    297000  -1014.1265      120.96647      216.35186      0.5          
    298000  -961.65253      164.1207       220.35361      0.5          
    299000  -993.06906     -189.02565      219.0271       0.5          
    300000  -830.4523       29.24264       224.49823      0.5          
    301000  -984.61595     -36.43837       217.70672      0.5          
    302000  -946.5265       70.928184      220.88913      0.5          
    303000  -1004.8097     -4.807417       221.0116       0.5          
    304000  -1069.6159     -61.072511      221.3679       0.5          
    305000  -1016.2431      11.297426      218.90167      0.5          
    306000  -996.42233     -140.36905      219.02929      0.5          
    307000  -1038.1748      118.44727      219.2086       0.5          
    308000  -1108.0555      179.11063      218.32328      0.5          
    309000  -1043.7147      41.995957      218.81393      0.5          
    310000  -994.04179     -28.948785      220.2844       0.5          
    311000  -1084.7743      13.563497      217.15024      0.5          
    312000  -980.19073     -360.30059      223.37915      0.5          
    313000  -976.85116      143.92588      219.14057      0.5          
    314000  -920.73062      71.025024      218.71718      0.5          
    315000  -801.77745     -227.66361      223.43797      0.5          
    316000  -852.75797     -55.151549      221.36743      0.5          
    317000  -821.16275     -73.742589      224.6242       0.5          
    318000  -937.75262      18.17702       220.81262      0.5          
    319000  -862.11141      186.96089      222.5998       0.5          
    320000  -887.56525     -193.81404      220.45178      0.5          
    321000  -939.17686     -154.07337      218.82904      0.5          
    322000  -921.62179      83.6486        218.79564      0.5          
    323000  -919.84151      20.19864       218.10135      0.5          
    324000  -823.06094      70.400732      221.04813      0.5          
    325000  -955.73681     -31.823131      219.28572      0.5          
    326000  -998.87064     -22.194849      215.40859      0.5          
    327000  -1012.1599     -207.73118      218.81576      0.5          
    328000  -912.60736     -31.874773      221.32064      0.5          
    329000  -926.03963      215.72307      221.82353      0.5          
    330000  -903.27315      267.76831      219.29461      0.5          
    331000  -824.35938      212.7043       221.14044      0.5          
    332000  -988.8138      -120.45143      216.54127      0.5          
    333000  -965.05178      249.82654      219.30466      0.5          
    334000  -959.37499     -17.209051      219.13097      0.5          
    335000  -953.0776      -182.45588      220.74599      0.5          
    336000  -906.97203     -81.158463      221.17728      0.5          
    337000  -965.8517       152.71382      222.74208      0.5          
    338000  -1010.2045     -92.023087      218.9017       0.5          
    339000  -859.73637      111.45853      222.1938       0.5          
    340000  -909.92257      244.86357      219.84104      0.5          
    341000  -997.40167      6.3456483      219.82778      0.5          
    342000  -1062.7903      4.5867549      218.0475       0.5          
    343000  -1038.8811     -94.999055      217.92933      0.5          
    344000  -1095.6462      226.91563      222.28555      0.5          
    345000  -958.28102     -44.345613      219.82943      0.5          
    346000  -924.5465       120.35157      222.21013      0.5          
    347000  -1033.4443     -118.31497      216.81882      0.5          
    348000  -1030.3069      136.57756      218.43216      0.5          
    349000  -1072.0579      163.31416      216.30009      0.5          
    350000  -962.93877     -163.14426      218.79542      0.5          
    351000  -1007.6153     -76.519013      217.18817      0.5          
    352000  -1058.3835      122.31166      216.98433      0.5          
    353000  -913.83523     -109.91265      220.89527      0.5          
    354000  -752.217       -22.364541      223.0056       0.5          
    355000  -796.92993      335.46357      221.08851      0.5          
    356000  -776.64903      115.13916      222.56353      0.5          
    357000  -791.85351      34.520747      222.25234      0.5          
    358000  -868.80786      149.95663      219.09938      0.5          
    359000  -835.58513      3.7636511      219.91091      0.5          
    360000  -819.56439     -53.304575      219.34894      0.5          
    361000  -875.15603     -348.19286      216.86245      0.5          
    362000  -767.31291      8.2838111      224.00361      0.5          
    363000  -840.46157      127.36071      222.80777      0.5          
    364000  -791.79664     -73.686993      221.9087       0.5          
    365000  -851.02475      198.16075      221.22412      0.5          
    366000  -864.43437     -38.628207      220.69181      0.5          
    367000  -960.8726      -53.64781       218.64047      0.5          
    368000  -965.7532      -105.8348       216.70131      0.5          
    369000  -893.21134      76.146693      219.70102      0.5          
    370000  -877.48412      193.78429      220.48529      0.5          
    371000  -804.94051     -60.471355      224.10427      0.5          
    372000  -962.91864      43.347159      220.12563      0.5          
    373000  -896.26351     -93.110603      221.13207      0.5          
    374000  -1031.8655     -49.05162       219.01233      0.5          
    375000  -901.69114      70.057661      221.64463      0.5          
    376000  -962.23849      186.33279      220.08837      0.5          
    377000  -968.60729     -103.67989      220.13091      0.5          
    378000  -1014.5886     -72.097242      221.8736       0.5          
    379000  -995.07625      89.297085      220.78032      0.5          
    380000  -1026.5782      190.02499      219.21521      0.5          
    381000  -938.85735      419.05517      223.84777      0.5          
    382000  -1077.2463      125.80185      215.04871      0.5          
    383000  -990.6175       88.052664      219.75786      0.5          
    384000  -975.00841     -2.5768533      221.90535      0.5          
    385000  -1044.3184      297.58163      219.05518      0.5          
    386000  -970.44511      155.02305      222.15121      0.5          
    387000  -951.00557     -98.072728      220.34233      0.5          
    388000  -1009.1305      260.44251      221.97398      0.5          
    389000  -1023.3268      122.53944      218.64681      0.5          
    390000  -1009.137      -272.91185      219.221        0.5          
    391000  -874.51338      173.96427      220.73331      0.5          
    392000  -893.23533      62.857452      219.57801      0.5          
    393000  -779.76385     -291.70798      221.52484      0.5          
    394000  -917.27789      205.33971      217.7702       0.5          
    395000  -767.48775      122.76076      222.42376      0.5          
    396000  -939.53007     -289.83682      217.67126      0.5          
    397000  -846.00467      12.242434      223.34629      0.5          
    398000  -993.89251     -51.014338      216.40541      0.5          
    399000  -988.48131      11.652638      218.62381      0.5          
    400000  -830.87562      39.63696       223.07126      0.5          
    401000  -936.51047      49.528146      219.06635      0.5          
    402000  -983.54476      240.01934      217.53823      0.5          
    403000  -979.05612     -97.005638      220.00288      0.5          
    404000  -968.12069     -76.038501      218.46949      0.5          
    405000  -986.5189       76.006498      217.80996      0.5          
    406000  -1002.1121     -241.37737      217.08523      0.5          
    407000  -947.7939       309.6883       221.89413      0.5          
    408000  -913.10195      135.81724      219.87992      0.5          
    409000  -985.9263      -325.55258      216.64343      0.5          
    410000  -979.70039      128.60653      218.98865      0.5          
    411000  -978.15343      76.5381        218.95984      0.5          
    412000  -869.63279      176.09261      222.54253      0.5          
    413000  -926.69425      115.62226      219.34931      0.5          
    414000  -935.77397     -87.34591       218.90006      0.5          
    415000  -1085.8152     -33.899095      216.20367      0.5          
    416000  -1080.2533      129.19392      218.88981      0.5          
    417000  -1093.6792      15.758081      219.05401      0.5          
    418000  -1037.589      -37.365402      218.52765      0.5          
    419000  -1039.6289     -81.51283       217.85599      0.5          
    420000  -985.52377      74.687394      219.45026      0.5          
    421000  -1034.4176     -42.101577      218.48176      0.5          
    422000  -1003.2206     -119.83198      221.03568      0.5          
    423000  -906.63982      348.98908      223.21242      0.5          
    424000  -891.24301      31.943673      222.32997      0.5          
    425000  -858.00824     -124.59802      224.18423      0.5          
    426000  -923.85458      274.25477      221.91989      0.5          
    427000  -901.0355      -243.24707      222.94498      0.5          
    428000  -973.43409     -578.46344      217.93318      0.5          
    429000  -870.28337      230.27457      222.71652      0.5          
    430000  -858.74884      191.53912      222.06294      0.5          
    431000  -839.03407     -80.162916      221.84795      0.5          
    432000  -929.63853      14.952611      215.51231      0.5          
    433000  -811.00128     -91.666395      220.08078      0.5          
    434000  -881.94067      73.912978      217.45722      0.5          
    435000  -878.83613     -4.5237385      219.78577      0.5          
    436000  -836.1813      -274.23245      220.25817      0.5          
    437000  -869.70195     -28.367288      222.44472      0.5          
    438000  -919.26085     -201.28684      219.4051       0.5          
    439000  -913.63201      325.72923      220.11837      0.5          
    440000  -981.73967     -63.711686      219.18361      0.5          
    441000  -912.8636       59.302634      219.57172      0.5          
    442000  -812.03192      23.549871      220.64257      0.5          
    443000  -864.02363     -20.490813      221.47715      0.5          
    444000  -809.8395       87.033575      221.80717      0.5          
    445000  -985.6166       16.379812      216.38685      0.5          
    446000  -964.97154      33.723912      215.90301      0.5          
    447000  -852.76588     -53.161838      223.95191      0.5          
    448000  -1013.7824      66.531332      214.70359      0.5          
    449000  -956.60815      208.83699      216.42752      0.5          
    450000  -949.8025       113.32956      220.30209      0.5          
    451000  -1064.0062     -167.27446      217.77347      0.5          
    452000  -865.15726     -122.08352      221.31772      0.5          
    453000  -905.39848      87.889358      221.21482      0.5          
    454000  -971.25042      14.99536       218.74832      0.5          
    455000  -895.66673      125.78484      220.18412      0.5          
    456000  -900.63595     -159.46403      219.22734      0.5          
    457000  -890.94263      174.91922      222.53827      0.5          
    458000  -885.75134     -78.638467      222.50078      0.5          
    459000  -988.9431      -51.416559      219.30371      0.5          
    460000  -921.1557       43.67626       219.79106      0.5          
    461000  -930.63573      48.113058      220.90035      0.5          
    462000  -951.27986     -140.55144      220.26006      0.5          
    463000  -795.55506      339.06402      222.62068      0.5          
    464000  -897.1889       169.03945      220.58567      0.5          
    465000  -846.41317     -184.92044      221.41033      0.5          
    466000  -892.41273      176.16505      221.23793      0.5          
    467000  -849.46765      95.349896      218.09086      0.5          
    468000  -936.04759     -127.76973      219.3609       0.5          
    469000  -929.22754     -120.91497      220.42183      0.5          
    470000  -856.03551      168.87815      220.09104      0.5          
    471000  -859.09266      47.539351      221.97196      0.5          
    472000  -961.29348      135.62528      218.93671      0.5          
    473000  -978.78227     -353.24277      215.13421      0.5          
    474000  -770.58769     -57.657475      222.80646      0.5          
    475000  -838.95679      128.46058      221.47108      0.5          
    476000  -820.68677      45.50073       222.06437      0.5          
    477000  -798.09175      38.48439       221.49916      0.5          
    478000  -783.76145      6.5251737      222.48001      0.5          
    479000  -828.50915     -102.74456      221.06766      0.5          
    480000  -870.45458     -39.966048      220.52686      0.5          
    481000  -967.23842      231.85939      221.50152      0.5          
    482000  -861.61011      187.5916       220.65155      0.5          
    483000  -950.86688     -101.70725      217.8817       0.5          
    484000  -898.21593     -28.293276      222.53617      0.5          
    485000  -936.15604      138.03262      219.83821      0.5          
    486000  -815.36729      10.678698      223.05767      0.5          
    487000  -847.72308      149.26553      222.92416      0.5          
    488000  -887.37581     -190.14123      221.97494      0.5          
    489000  -936.17521     -101.36072      219.78929      0.5          
    490000  -1035.4848      182.5861       214.12234      0.5          
    491000  -980.67616     -111.00473      216.24547      0.5          
    492000  -934.65661     -279.67743      220.21735      0.5          
    493000  -876.58526     -34.181655      222.8493       0.5          
    494000  -827.20732     -302.17346      219.64355      0.5          
    495000  -997.66004     -294.77184      218.16036      0.5          
    496000  -991.97859      400.62553      218.81997      0.5          
    497000  -883.66904      192.02325      220.5151       0.5          
    498000  -823.87426     -29.26339       221.24806      0.5          
    499000  -751.4641      -232.79934      223.32998      0.5          
    500000  -815.92821      227.31956      219.58731      0.5          
    501000  -909.46761      10.788827      221.50831      0.5          
    502000  -965.00236     -37.460542      220.29746      0.5          
    503000  -833.88218      26.055877      221.90367      0.5          
    504000  -954.27533      196.88561      218.84516      0.5          
    505000  -924.59581      74.367669      220.70391      0.5          
    506000  -842.55464      168.02743      221.90711      0.5          
    507000  -881.58754      59.490388      218.13022      0.5          
    508000  -912.26005      116.82268      220.34722      0.5          
    509000  -946.29418     -58.146688      220.39139      0.5          
    510000  -1053.19       -170.09021      215.25308      0.5          
    511000  -998.51545     -64.686179      219.27941      0.5          
    512000  -877.84391      83.653587      220.41837      0.5          
    513000  -908.90724      162.2817       221.05919      0.5          
    514000  -1030.0961      106.785        214.05673      0.5          
    515000  -1010.6825     -61.39818       218.72592      0.5          
    516000  -983.37403      4.078117       218.37564      0.5          
    517000  -903.32412      67.796091      223.03029      0.5          
    518000  -955.11063      166.65708      217.81081      0.5          
    519000  -900.59754     -132.51333      219.60219      0.5          
    520000  -942.22978      68.065562      215.75498      0.5          
    521000  -758.75565      222.56769      222.91018      0.5          
    522000  -844.88612     -237.00986      219.66448      0.5          
    523000  -881.71464      55.396209      221.60056      0.5          
    524000  -1017.5891      112.82461      216.50665      0.5          
    525000  -905.44732      41.43316       219.69512      0.5          
    526000  -901.58798      221.24077      218.63715      0.5          
    527000  -835.10572     -95.19032       219.99815      0.5          
    528000  -887.07926      103.235        217.017        0.5          
    529000  -902.44661     -193.5921       217.52059      0.5          
    530000  -906.5241       198.98417      219.01896      0.5          
    531000  -871.46249      170.18308      217.42748      0.5          
    532000  -864.72566     -60.266433      218.29796      0.5          
    533000  -807.52866     -73.44199       220.24846      0.5          
    534000  -836.81588     -15.856569      220.90985      0.5          
    535000  -882.48665      165.58522      220.556        0.5          
    536000  -904.08893     -62.354364      220.96659      0.5          
    537000  -845.24261     -41.573439      220.33869      0.5          
    538000  -762.64576      54.2348        225.3205       0.5          
    539000  -856.67458      116.1749       220.87192      0.5          
    540000  -882.23668     -259.58253      222.18319      0.5          
    541000  -896.68439      252.13109      221.64364      0.5          
    542000  -903.98569      86.195744      218.76792      0.5          
    543000  -818.18828      25.79157       220.71394      0.5          
    544000  -959.66229      20.058199      219.50834      0.5          
    545000  -801.36045     -2.8915188      225.77108      0.5          
    546000  -864.18103      89.541524      221.63896      0.5          
    547000  -923.11003      131.48116      221.2247       0.5          
    548000  -1018.7153     -235.36672      220.14561      0.5          
    549000  -916.96784      151.62469      221.01258      0.5          
    550000  -908.31284      26.307131      219.87796      0.5          
    551000  -931.4292      -223.98252      218.31518      0.5          
    552000  -834.34838      100.01674      223.88269      0.5          
    553000  -899.17125      192.47324      221.68003      0.5          
    554000  -874.56519     -30.514809      221.40081      0.5          
    555000  -883.05102     -146.53588      220.02299      0.5          
    556000  -939.98548     -66.694694      217.42597      0.5          
    557000  -870.37974      203.73183      218.82942      0.5          
    558000  -827.37533      27.531874      220.11787      0.5          
    559000  -844.2109      -146.88794      220.77232      0.5          
    560000  -867.39057     -197.61843      217.97033      0.5          
    561000  -787.58751      12.87874       220.90953      0.5          
    562000  -809.93316     -1.3617873      218.15743      0.5          
    563000  -761.86325     -169.23538      222.66705      0.5          
    564000  -760.16283     -32.630664      219.2748       0.5          
    565000  -701.25591      16.662021      222.51029      0.5          
    566000  -677.10696     -171.61887      222.63106      0.5          
    567000  -794.01839     -314.47844      217.60486      0.5          
    568000  -740.84482      86.504444      219.30297      0.5          
    569000  -717.35959      194.44184      223.30428      0.5          
    570000  -733.78164     -7.1830092      223.41051      0.5          
    571000  -840.25059     -152.4633       219.09008      0.5          
    572000  -900.25449      82.749002      221.76087      0.5          
    573000  -829.79067      198.30938      222.66061      0.5          
    574000  -818.41606      51.146417      218.45695      0.5          
    575000  -847.93554      2.0187806      222.73391      0.5          
    576000  -861.86591     -184.19772      223.55998      0.5          
    577000  -905.90508     -354.25122      218.08076      0.5          
    578000  -834.41026      253.99881      221.01916      0.5          
    579000  -908.61028      269.31815      218.4721       0.5          
    580000  -989.30779     -10.211015      217.51864      0.5          
    581000  -907.61333      22.557835      219.51993      0.5          
    582000  -934.6318       244.27312      219.87018      0.5          
    583000  -974.51714     -23.533262      220.0996       0.5          
    584000  -966.91225     -130.95866      220.20183      0.5          
    585000  -815.71584     -129.98942      221.94128      0.5          
    586000  -892.30576      303.52308      218.98241      0.5          
    587000  -861.15228      5.9295404      219.89567      0.5          
    588000  -949.48317     -198.63598      217.65803      0.5          
    589000  -834.24871     -60.789664      220.25497      0.5          
    590000  -949.86916     -115.44756      216.33653      0.5          
    591000  -849.4244       180.5675       223.11708      0.5          
    592000  -834.6001       153.5055       219.44376      0.5          
    593000  -801.28272      193.65197      219.26887      0.5          
    594000  -852.20756     -86.715789      215.46154      0.5          
    595000  -696.56289     -253.13619      222.26467      0.5          
    596000  -790.76992      248.11502      222.63778      0.5          
    597000  -832.98564      93.498393      218.56237      0.5          
    598000  -884.03208     -53.94408       219.12583      0.5          
    599000  -745.53383      93.391545      221.6878       0.5          
    600000  -841.15192      25.989544      220.46337      0.5          
    601000  -903.27063     -66.426217      218.02653      0.5          
    602000  -777.37549     -80.113094      220.22086      0.5          
    603000  -931.13322     -175.13402      218.76631      0.5          
    604000  -884.48433     -148.07626      220.40649      0.5          
    605000  -814.96132      128.89419      220.895        0.5          
    606000  -762.32018      244.03641      223.42751      0.5          
    607000  -834.39622      67.375643      219.25908      0.5          
    608000  -925.74914     -319.26544      218.50216      0.5          
    609000  -904.31965     -101.34146      219.6907       0.5          
    610000  -899.45735     -36.897409      218.63568      0.5          
    611000  -881.2503       150.29181      219.25657      0.5          
    612000  -844.61079      137.20035      221.47774      0.5          
    613000  -906.1972       60.79787       216.02143      0.5          
    614000  -871.35057      45.000474      219.34642      0.5          
    615000  -885.21882     -271.6965       219.16329      0.5          
    616000  -880.06962     -149.03488      221.75821      0.5          
    617000  -896.89031      362.05849      218.98116      0.5          
    618000  -889.69424      30.854621      217.22876      0.5          
    619000  -894.03257     -180.3563       216.86949      0.5          
    620000  -865.25144      55.985721      218.63138      0.5          
    621000  -862.61649     -137.38754      219.8652       0.5          
    622000  -798.91657     -15.926254      222.40411      0.5          
    623000  -880.91483      86.539942      216.09487      0.5          
    624000  -835.93073     -118.40298      221.48245      0.5          
    625000  -892.14551      41.36157       218.21607      0.5          
    626000  -766.89323      181.1869       221.00025      0.5          
    627000  -819.299        20.778161      221.37149      0.5          
    628000  -833.97374      51.780956      219.74793      0.5          
    629000  -871.12357     -24.890515      220.43151      0.5          
    630000  -787.14585      21.49273       222.31941      0.5          
    631000  -791.93564     -325.49184      221.22861      0.5          
    632000  -865.1403       55.954157      218.82901      0.5          
    633000  -858.48608      55.857213      217.43024      0.5          
    634000  -807.15494     -145.12904      222.35296      0.5          
    635000  -820.57407     -255.38694      218.8008       0.5          
    636000  -972.1463       13.457095      215.45579      0.5          
    637000  -759.19933      73.94553       223.67192      0.5          
    638000  -773.00264     -139.71633      220.56546      0.5          
    639000  -776.22514     -8.6848194      220.98073      0.5          
    640000  -835.61646      83.002917      219.40298      0.5          
    641000  -703.02164      46.851916      224.16599      0.5          
    642000  -688.46776     -238.27244      221.38921      0.5          
    643000  -770.1686       67.670657      220.56686      0.5          
    644000  -778.12875      67.109792      220.57883      0.5          
    645000  -763.0966      -28.026185      221.63805      0.5          
    646000  -843.64935      94.639249      220.38097      0.5          
    647000  -826.1965       176.18693      221.07649      0.5          
    648000  -899.45404     -109.82628      219.44088      0.5          
    649000  -754.9201       10.242485      222.0628       0.5          
    650000  -752.76362      106.7051       219.05783      0.5          
    651000  -901.61812     -172.18703      218.80291      0.5          
    652000  -793.36254     -66.79977       219.94464      0.5          
    653000  -918.04065      295.89713      218.44923      0.5          
    654000  -871.75243      49.373943      221.25527      0.5          
    655000  -905.40586     -68.240221      219.94242      0.5          
    656000  -806.44517      403.04119      222.60348      0.5          
    657000  -925.38724      112.62295      217.91861      0.5          
    658000  -919.16239     -320.38064      219.78201      0.5          
    659000  -870.49702      69.073195      220.29945      0.5          
    660000  -863.5935       156.87436      219.74526      0.5          
    661000  -745.57568     -258.46655      225.90239      0.5          
    662000  -850.06383      33.209826      220.10724      0.5          
    663000  -819.18675      86.939976      219.80737      0.5          
    664000  -837.28919     -304.91149      219.16778      0.5          
    665000  -793.69492      227.50499      221.03873      0.5          
    666000  -873.068        212.40441      218.12169      0.5          
    667000  -811.04777      39.464051      222.19752      0.5          
    668000  -864.71841      130.68662      217.27255      0.5          
    669000  -827.32183     -58.405986      219.44743      0.5          
    670000  -780.40391      92.641163      220.16255      0.5          
    671000  -810.28273      32.035142      218.87112      0.5          
    672000  -812.75168     -3.4145729      220.34658      0.5          
    673000  -892.41074      93.682016      219.81109      0.5          
    674000  -797.30456     -168.51889      220.03804      0.5          
    675000  -867.48135     -55.922807      217.0294       0.5          
    676000  -918.94219      161.5874       216.20314      0.5          
    677000  -930.17         105.86593      217.49505      0.5          
    678000  -822.40785     -2.1419832      221.89176      0.5          
    679000  -887.90599     -148.86289      222.26549      0.5          
    680000  -851.22902     -149.87505      220.38109      0.5          
    681000  -943.3476      -13.250582      220.45956      0.5          
    682000  -891.09275      117.47723      219.86544      0.5          
    683000  -940.60506     -229.02645      217.55489      0.5          
    684000  -990.65695     -13.184083      215.25336      0.5          
    685000  -843.9396       139.80882      220.29901      0.5          
    686000  -871.535       -66.82181       219.72602      0.5          
    687000  -860.5515      -202.83994      219.47918      0.5          
    688000  -891.13908      9.2472952      218.42905      0.5          
    689000  -770.81069      180.6966       221.3877       0.5          
    690000  -815.88095      45.362223      219.44162      0.5          
    691000  -866.34089      23.228477      222.36093      0.5          
    692000  -1010.2443     -127.10215      216.3438       0.5          
    693000  -874.60759      4.0659497      221.56752      0.5          
    694000  -869.77249     -81.117438      221.49078      0.5          
    695000  -904.56586     -132.30335      220.26726      0.5          
    696000  -723.86408      245.54889      223.41666      0.5          
    697000  -755.37609     -172.02941      218.52934      0.5          
    698000  -816.87746     -205.11385      220.53739      0.5          
    699000  -798.24794      442.68341      223.58789      0.5          
    700000  -913.05983     -35.330226      219.01817      0.5          
    701000  -820.1335       40.87719       219.66904      0.5          
    702000  -760.64285      368.70546      219.52966      0.5          
    703000  -805.27895     -73.726501      221.57843      0.5          
    704000  -744.56826     -211.05596      221.88403      0.5          
    705000  -845.64024     -186.86011      216.50677      0.5          
    706000  -749.83936     -187.24029      222.12171      0.5          
    707000  -895.84382     -161.4291       218.1374       0.5          
    708000  -892.55634      224.77058      219.7965       0.5          
    709000  -836.83188      58.599054      220.96708      0.5          
    710000  -818.78146     -80.606177      219.42842      0.5          
    711000  -768.96402      106.72025      221.43004      0.5          
    712000  -800.34711     -72.765995      225.38616      0.5          
    713000  -921.72418     -129.51038      220.03863      0.5          
    714000  -780.4934      -122.95615      221.16182      0.5          
    715000  -891.32953     -6.4609461      221.1928       0.5          
    716000  -926.3437       192.8103       219.10642      0.5          
    717000  -861.5277      -93.708716      219.14842      0.5          
    718000  -884.29735     -107.65484      219.56049      0.5          
    719000  -904.83408      70.827966      217.46838      0.5          
    720000  -921.15403     -41.039456      215.06648      0.5          
    721000  -858.70093      0.94372796     220.53788      0.5          
    722000  -910.01855      84.602962      222.42849      0.5          
    723000  -888.42807      17.817499      217.73459      0.5          
    724000  -813.16454     -167.71341      223.10313      0.5          
    725000  -895.09817     -120.10389      217.90386      0.5          
    726000  -922.26398     -197.22356      219.78427      0.5          
    727000  -950.65876     -91.492001      216.20822      0.5          
    728000  -942.01993      339.10904      215.73847      0.5          
    729000  -793.63359      14.567251      225.78695      0.5          
    730000  -872.93108     -28.256346      221.81156      0.5          
    731000  -872.09824     -120.28482      221.15106      0.5          
    732000  -1048.0726     -27.312717      217.5357       0.5          
    733000  -902.70551     -45.528673      220.88764      0.5          
    734000  -875.60486      131.71404      222.41156      0.5          
    735000  -880.54573      242.14148      221.45051      0.5          
    736000  -871.24508     -188.46509      221.99917      0.5          
    737000  -845.60151      25.645313      218.12183      0.5          
    738000  -835.27562      137.86352      219.12326      0.5          
    739000  -903.22195     -59.236361      220.66723      0.5          
    740000  -823.10314      90.634667      221.59465      0.5          
    741000  -948.0388       92.855685      218.51622      0.5          
    742000  -735.16884     -92.746291      224.24765      0.5          
    743000  -812.66047      44.977494      222.62829      0.5          
    744000  -916.92202     -19.095297      220.48359      0.5          
    745000  -866.51456     -178.17002      220.2582       0.5          
    746000  -710.05532      24.742382      225.7076       0.5          
    747000  -801.18026     -226.23751      220.5682       0.5          
    748000  -873.87838     -189.1348       222.59282      0.5          
    749000  -852.46703     -64.164622      221.61712      0.5          
    750000  -840.36722      30.76868       221.9623       0.5          
    751000  -819.73688     -47.802238      221.76756      0.5          
    752000  -708.03095     -288.72708      225.52408      0.5          
    753000  -907.13962      33.417294      219.1806       0.5          
    754000  -1033.8963     -10.730802      215.81716      0.5          
    755000  -819.27356     -53.230601      223.04378      0.5          
    756000  -971.26031      223.23992      215.96939      0.5          
    757000  -881.43141      244.13653      214.67175      0.5          
    758000  -911.58618     -113.25878      219.45059      0.5          
    759000  -690.50112     -222.06243      226.40747      0.5          
    760000  -781.89816      211.44259      220.64641      0.5          
    761000  -789.37677      288.78091      221.05135      0.5          
    762000  -707.915       -3.0132438      223.99662      0.5          
    763000  -770.92601     -89.810567      221.73152      0.5          
    764000  -749.96578     -15.317137      222.40948      0.5          
    765000  -870.34371      138.99135      220.74519      0.5          
    766000  -886.02127     -35.026633      221.32145      0.5          
    767000  -921.31004     -45.912558      219.5687       0.5          
    768000  -849.60595      99.08069       217.89031      0.5          
    769000  -844.46252     -129.60472      222.26919      0.5          
    770000  -961.51277     -177.50694      217.00833      0.5          
    771000  -829.89324     -55.864531      220.99422      0.5          
    772000  -916.67631      200.79651      220.03948      0.5          
    773000  -800.52324      259.41335      224.223        0.5          
    774000  -954.01208     -313.63833      219.93085      0.5          
    775000  -838.20334     -91.931958      217.31211      0.5          
    776000  -882.14752      44.272922      222.18733      0.5          
    777000  -884.48688     -76.118451      218.46147      0.5          
    778000  -892.44349     -113.84834      217.89515      0.5          
    779000  -845.5503       200.63858      222.81568      0.5          
    780000  -902.31715      495.01124      220.11863      0.5          
    781000  -898.64997      231.90294      219.63312      0.5          
    782000  -941.866       -157.84945      218.45572      0.5          
    783000  -793.38975     -93.16404       220.14718      0.5          
    784000  -912.33836      118.47732      219.65114      0.5          
    785000  -866.47566     -123.90949      219.28961      0.5          
    786000  -781.31289     -115.8298       223.87162      0.5          
    787000  -949.02562      20.15692       217.60211      0.5          
    788000  -853.21422      118.01926      218.55172      0.5          
    789000  -834.5443       70.896325      223.62527      0.5          
    790000  -953.04071     -180.55947      217.5701       0.5          
    791000  -857.72967     -30.977261      220.08565      0.5          
    792000  -788.60478     -39.079032      219.99323      0.5          
    793000  -802.85049     -278.82753      222.44241      0.5          
    794000  -784.10733      50.717663      222.12768      0.5          
    795000  -872.81862      44.845483      220.41939      0.5          
    796000  -780.90979     -86.335796      221.21053      0.5          
    797000  -909.24538     -46.883589      218.47001      0.5          
    798000  -818.50354      127.43185      219.45701      0.5          
    799000  -895.91627     -69.49042       218.96475      0.5          
    800000  -746.19203      48.014088      223.34349      0.5          
    801000  -851.20608     -64.200364      222.40413      0.5          
    802000  -767.56612     -54.383493      222.42194      0.5          
    803000  -920.197       -301.39176      220.01409      0.5          
    804000  -876.22168      404.82152      220.35887      0.5          
    805000  -879.33682      69.629479      217.82142      0.5          
    806000  -879.27912     -293.25742      216.66693      0.5          
    807000  -855.6383       69.809357      217.03383      0.5          
    808000  -802.26398     -17.892214      219.52988      0.5          
    809000  -758.59079     -105.95066      222.56241      0.5          
    810000  -999.04473     -29.734994      217.0456       0.5          
    811000  -844.52848      289.7148       221.06998      0.5          
    812000  -835.32912      52.145122      219.99391      0.5          
    813000  -802.24227     -150.67415      220.71124      0.5          
    814000  -879.44969      53.189748      218.994        0.5          
    815000  -900.64432      313.44092      218.81249      0.5          
    816000  -895.81052      142.40504      217.00003      0.5          
    817000  -1000.3808     -304.44085      218.78146      0.5          
    818000  -798.35144     -138.04348      221.68801      0.5          
    819000  -850.75022      163.87845      216.5199       0.5          
    820000  -924.36691      139.97157      220.48952      0.5          
    821000  -900.16843     -346.55831      218.99647      0.5          
    822000  -826.05108      7.6815181      222.77151      0.5          
    823000  -863.62044     -34.787726      218.81904      0.5          
    824000  -879.31834     -200.85884      221.82259      0.5          
    825000  -886.81282      27.44146       220.75249      0.5          
    826000  -690.48466      341.90907      224.52718      0.5          
    827000  -857.14448      144.34151      219.03433      0.5          
    828000  -829.67923     -170.91712      222.38557      0.5          
    829000  -780.53896     -128.77738      221.56258      0.5          
    830000  -868.27085     -219.82381      219.38286      0.5          
    831000  -805.17791      133.05623      219.07207      0.5          
    832000  -821.26807      211.37889      219.45304      0.5          
    833000  -806.70834     -204.18024      222.93571      0.5          
    834000  -757.71206      108.14862      222.30392      0.5          
    835000  -844.10778     -18.969882      215.8413       0.5          
    836000  -884.02619     -79.371324      217.83211      0.5          
    837000  -950.79074      18.499372      216.57913      0.5          
    838000  -754.70639     -113.93495      221.23215      0.5          
    839000  -859.15663      71.632279      218.97306      0.5          
    840000  -872.31445     -103.39602      219.65145      0.5          
    841000  -705.41269      98.721289      222.45611      0.5          
    842000  -862.97171      6.442039       220.04005      0.5          
    843000  -789.81388      160.58326      222.17078      0.5          
    844000  -760.57328      86.541962      222.19343      0.5          
    845000  -813.8271       13.723069      221.15578      0.5          
    846000  -836.24204      31.319612      220.898        0.5          
    847000  -938.4341       257.5894       214.14019      0.5          
    848000  -838.3984      -14.946188      219.03125      0.5          
    849000  -848.257       -80.883883      219.76626      0.5          
    850000  -837.70056      328.13445      220.7027       0.5          
    851000  -735.33138     -32.798114      223.48814      0.5          
    852000  -696.97694     -339.57195      222.83731      0.5          
    853000  -819.36774      80.155684      219.07225      0.5          
    854000  -899.59582      33.39287       217.63794      0.5          
    855000  -828.68325      125.33734      221.76527      0.5          
    856000  -862.93079     -111.59732      219.38005      0.5          
    857000  -808.42468     -98.899844      220.21582      0.5          
    858000  -769.06679      282.55409      223.13943      0.5          
    859000  -940.4304       276.6477       213.97585      0.5          
    860000  -888.33762     -137.07622      215.97391      0.5          
    861000  -719.28754     -24.828599      221.93477      0.5          
    862000  -789.35962      125.20946      219.92627      0.5          
    863000  -725.3471       72.912802      217.31977      0.5          
    864000  -747.83958      34.824474      221.24262      0.5          
    865000  -746.28313     -91.054761      221.4295       0.5          
    866000  -765.79932     -210.72596      220.66554      0.5          
    867000  -588.46097     -32.45274       221.66216      0.5          
    868000  -664.76929      83.150947      221.23576      0.5          
    869000  -656.35991     -172.99974      220.9934       0.5          
    870000  -595.35744     -153.83586      225.35036      0.5          
    871000  -629.78789      152.81904      220.83844      0.5          
    872000  -638.5199       99.119919      220.51371      0.5          
    873000  -735.83892     -141.02354      218.50691      0.5          
    874000  -687.36697     -90.144752      221.34417      0.5          
    875000  -736.41517      98.545353      222.07689      0.5          
    876000  -695.17925      6.1203501      219.19741      0.5          
    877000  -663.48149      46.691006      220.24582      0.5          
    878000  -780.03197     -23.619912      219.01767      0.5          
    879000  -749.68627     -147.63663      218.38388      0.5          
    880000  -746.10008     -105.34287      220.72036      0.5          
    881000  -774.05216      52.253967      218.72185      0.5          
    882000  -744.41518     -15.765362      221.21669      0.5          
    883000  -745.44342     -65.06875       222.45223      0.5          
    884000  -794.82168      20.602127      220.67405      0.5          
    885000  -796.01716     -61.039407      220.92316      0.5          
    886000  -783.20594      262.65955      220.81507      0.5          
    887000  -824.29196     -38.367225      220.14168      0.5          
    888000  -834.12057     -232.90228      219.99436      0.5          
    889000  -833.69083      87.395543      219.57165      0.5          
    890000  -880.85816      250.58706      219.48995      0.5          
    891000  -825.05818     -429.05382      224.23102      0.5          
    892000  -954.36088      37.090276      216.8113       0.5          
    893000  -918.10403      294.37493      219.0036       0.5          
    894000  -927.503       -240.64812      218.96196      0.5          
    895000  -998.50706     -32.284761      216.92255      0.5          
    896000  -951.27905      15.241389      218.80073      0.5          
    897000  -718.88722      181.76541      222.91373      0.5          
    898000  -861.18172      42.757129      221.64792      0.5          
    899000  -802.39888      29.03974       221.66932      0.5          
    900000  -867.08509      223.09501      219.69494      0.5          
    901000  -888.38841      42.983261      217.07004      0.5          
    902000  -798.31197     -11.712636      220.53587      0.5          
    903000  -819.20243      30.85801       219.17921      0.5          
    904000  -833.99942      90.001668      217.7892       0.5          
    905000  -725.07402      117.69109      221.1664       0.5          
    906000  -836.7983       27.847324      220.29614      0.5          
    907000  -755.88743      42.002663      219.91302      0.5          
    908000  -805.90798     -126.26232      219.72049      0.5          
    909000  -844.45738     -352.5199       219.51724      0.5          
    910000  -718.84964     -211.85507      218.71977      0.5          
    911000  -699.9004       210.71197      221.07293      0.5          
    912000  -805.96674      172.21881      217.72975      0.5          
    913000  -699.63447      152.2502       223.75984      0.5          
    914000  -754.00493     -325.36142      221.76746      0.5          
    915000  -719.06323     -193.85884      222.84732      0.5          
    916000  -772.75495     -59.449814      221.84257      0.5          
    917000  -831.92447      10.032472      217.40723      0.5          
    918000  -839.24715     -223.62203      219.2465       0.5          
    919000  -790.52242      37.408455      221.34726      0.5          
    920000  -882.14645     -167.30384      219.80092      0.5          
    921000  -707.10711     -139.28099      222.28203      0.5          
    922000  -702.20696     -1.3844403      224.1769       0.5          
    923000  -806.12257      20.553927      218.10736      0.5          
    924000  -813.67694      123.96402      220.45331      0.5          
    925000  -820.85858     -300.98024      219.26499      0.5          
    926000  -739.29303     -94.186756      220.21112      0.5          
    927000  -787.48672      168.72655      219.5132       0.5          
    928000  -687.32628      41.251475      224.63238      0.5          
    929000  -721.17577     -149.17525      221.51689      0.5          
    930000  -886.24895     -28.12502       217.81602      0.5          
    931000  -829.59861      114.5097       217.57686      0.5          
    932000  -788.68519     -2.9554988      220.63349      0.5          
    933000  -818.98911     -20.226197      219.55062      0.5          
    934000  -869.35125      282.5996       220.2635       0.5          
    935000  -904.6078       142.60534      214.10125      0.5          
    936000  -845.3086      -188.98998      220.11671      0.5          
    937000  -876.24544      6.4045163      218.83346      0.5          
    938000  -869.2634       99.995014      220.63005      0.5          
    939000  -874.4032      -152.99073      219.26846      0.5          
    940000  -851.60612      28.629695      218.92513      0.5          
    941000  -889.20347      131.30485      216.75845      0.5          
    942000  -830.75414     -57.413461      219.1656       0.5          
    943000  -837.74617     -90.671693      220.56662      0.5          
    944000  -764.68625     -59.185614      220.02912      0.5          
    945000  -774.13821      141.99981      220.7973       0.5          
    946000  -775.9412       118.9835       220.96842      0.5          
    947000  -870.08301     -128.61471      218.44184      0.5          
    948000  -840.31792      71.979128      220.2978       0.5          
    949000  -814.90185      112.79671      220.52061      0.5          
    950000  -904.54771      55.055812      217.84635      0.5          
    951000  -807.49796      78.7912        222.40062      0.5          
    952000  -775.11509     -17.603433      222.34097      0.5          
    953000  -797.98087     -25.318613      221.74271      0.5          
    954000  -897.62566      220.89693      218.80598      0.5          
    955000  -821.22612      316.35437      221.09198      0.5          
    956000  -820.1213      -43.263902      221.64557      0.5          
    957000  -819.3          64.550956      219.31063      0.5          
    958000  -864.5437       239.16957      217.9823       0.5          
    959000  -788.51297     -138.8431       219.58719      0.5          
    960000  -771.51525     -119.63245      225.03807      0.5          
    961000  -765.59993      64.111542      222.39347      0.5          
    962000  -846.03767      121.30777      218.02382      0.5          
    963000  -812.49634      139.80589      219.03006      0.5          
    964000  -798.22281     -251.98968      222.49413      0.5          
    965000  -861.48735     -53.151877      220.33852      0.5          
    966000  -874.93074      177.73894      218.99328      0.5          
    967000  -760.52605     -20.525068      221.0282       0.5          
    968000  -765.52043      45.418081      222.98862      0.5          
    969000  -770.50909     -288.42063      222.68028      0.5          
    970000  -712.97563     -20.491906      223.28102      0.5          
    971000  -808.30223      296.18215      219.12968      0.5          
    972000  -783.66125     -66.241241      220.25597      0.5          
    973000  -821.56044      53.159397      220.03058      0.5          
    974000  -906.19644      16.954826      217.13565      0.5          
    975000  -874.55597      111.34235      219.03051      0.5          
    976000  -721.14386      175.73982      223.08337      0.5          
    977000  -862.2479      -203.23233      219.18962      0.5          
    978000  -887.28888     -134.6752       217.00163      0.5          
    979000  -841.4261       139.59228      217.44255      0.5          
    980000  -822.23826      1.6359565      220.53249      0.5          
    981000  -797.778       -13.776298      221.13735      0.5          
    982000  -840.27786     -319.28498      219.17619      0.5          
    983000  -857.41504     -94.429308      220.62597      0.5          
    984000  -921.38086      119.81693      218.30124      0.5          
    985000  -883.13708      101.84456      223.19114      0.5          
    986000  -789.38024     -32.833914      221.75926      0.5          
    987000  -835.26493     -99.030208      222.78134      0.5          
    988000  -1044.1496     -13.015913      216.81387      0.5          
    989000  -983.81663      37.625331      217.73797      0.5          
    990000  -874.27982      243.75653      218.34855      0.5          
    991000  -818.54574     -93.086243      218.91016      0.5          
    992000  -903.1317      -461.20443      221.66591      0.5          
    993000  -954.93526     -68.573662      215.79725      0.5          
    994000  -867.76574      89.400937      220.50549      0.5          
    995000  -892.78144      62.864089      218.9518       0.5          
    996000  -875.39248      231.48924      218.78044      0.5          
    997000  -937.19648     -42.736943      215.95384      0.5          
    998000  -773.9145      -229.36255      220.80664      0.5          
    999000  -825.98911      303.62661      221.1218       0.5          
   1000000  -802.47583      225.73375      221.33799      0.5          
   1001000  -893.74917      128.73608      219.0123       0.5          
   1002000  -851.15458      15.716245      220.57963      0.5          
   1003000  -889.91454     -196.73484      218.16519      0.5          
   1004000  -867.98006     -69.395113      220.62584      0.5          
   1005000  -769.89712      20.165252      222.02073      0.5          
   1006000  -831.90082      219.87119      222.98166      0.5          
   1007000  -778.14196      8.9572624      222.20385      0.5          
   1008000  -786.53027     -255.39149      220.64679      0.5          
   1009000  -839.11333     -249.11576      215.16951      0.5          
   1010000  -754.4819      -3.6359331      222.5833       0.5          
   1011000  -936.70538      44.969338      213.53138      0.5          
   1012000  -866.11956      206.90401      220.04152      0.5          
   1013000  -828.53236      129.92269      220.63782      0.5          
   1014000  -789.34146      158.1653       219.20425      0.5          
   1015000  -972.76591     -357.55854      214.48337      0.5          
   1016000  -723.67002     -86.849445      224.11291      0.5          
   1017000  -821.90803      400.74566      218.22175      0.5          
   1018000  -887.68915      89.951714      217.7494       0.5          
   1019000  -951.77708     -249.31748      216.07659      0.5          
   1020000  -738.02261     -166.06258      224.40953      0.5          
   1021000  -799.13553      108.54531      220.77584      0.5          
   1022000  -833.55667      268.11683      219.40488      0.5          
   1023000  -899.23126     -149.53693      220.45217      0.5          
   1024000  -895.4223       36.097568      221.95617      0.5          
   1025000  -897.06894     -112.27226      219.6631       0.5          
   1026000  -970.05662     -105.88204      218.38717      0.5          
   1027000  -882.12076     -35.649131      218.88544      0.5          
   1028000  -903.41293     -47.523463      219.73178      0.5          
[...]
   3748000  -681.39335      52.841069      221.66653      0.5          
   3749000  -681.65504     -164.65599      218.42762      0.5          
   3750000  -681.60698     -26.217703      218.55743      0.5          
   3751000  -681.55723      136.47591      218.6351       0.5          
   3752000  -681.31286      68.935121      220.58471      0.5          
   3753000  -681.58114     -257.08567      221.44381      0.5          
   3754000  -681.46024     -25.167363      220.54881      0.5          
   3755000  -681.63348      252.58563      220.23248      0.5          
   3756000  -681.46099     -81.74445       222.16698      0.5          
   3757000  -681.56377     -109.66477      221.41242      0.5          
   3758000  -681.41549      23.698518      219.18949      0.5          
   3759000  -681.36926     -45.342082      219.51692      0.5          
   3760000  -681.54598      37.442324      222.31376      0.5          
   3761000  -681.72062      69.026199      224.13655      0.5          
   3762000  -681.63253      12.835061      221.51863      0.5          
   3763000  -681.39292     -93.952591      220.73309      0.5          
   3764000  -681.22503      30.700577      221.18702      0.5          
   3765000  -681.5395       114.72473      220.72607      0.5          
   3766000  -681.80107     -136.01152      222.31455      0.5          
   3767000  -681.73377     -19.021355      219.9745       0.5          
   3768000  -681.70478      98.429098      220.71223      0.5          
   3769000  -681.47549     -167.04302      218.5484       0.5          
   3770000  -681.37366      157.60279      218.33452      0.5          
   3771000  -681.35066      169.15878      218.46307      0.5          
   3772000  -681.56519      23.329613      220.45428      0.5          
   3773000  -681.5394       7.4574129      218.57137      0.5          
   3774000  -681.48563      5.953305       218.41211      0.5          
   3775000  -681.36735      59.290726      217.69367      0.5          
   3776000  -681.64331     -279.08365      220.1228       0.5          
   3777000  -681.73327      35.243297      216.95009      0.5          
   3778000  -681.46417      145.98032      219.4961       0.5          
   3779000  -681.59556     -330.22529      216.42859      0.5          
   3780000  -681.64019      149.94309      213.62463      0.5          
   3781000  -681.80056      237.49061      217.17556      0.5          
   3782000  -681.67685     -128.0203       217.57414      0.5          
   3783000  -681.51905     -343.62917      219.66827      0.5          
   3784000  -681.55708     -259.86654      220.05009      0.5          
   3785000  -681.33269      155.25174      218.11946      0.5          
   3786000  -681.58038      277.64464      218.66802      0.5          
   3787000  -681.64242      73.35456       221.18061      0.5          
   3788000  -681.47683     -128.22147      219.85102      0.5          
   3789000  -681.50751     -69.822033      220.85984      0.5          
   3790000  -681.211       -125.24706      218.60173      0.5          
   3791000  -681.24649      169.51569      222.36923      0.5          
   3792000  -681.44685      76.043357      220.8839       0.5          
   3793000  -681.29805     -225.61237      218.09464      0.5          
   3794000  -681.03282     -62.244111      217.13844      0.5          
   3795000  -680.99278      177.01791      219.6593       0.5          
   3796000  -681.04777      11.743344      219.55464      0.5          
   3797000  -681.05966     -277.00827      220.16948      0.5          
   3798000  -680.92203      128.38364      216.0368       0.5          
   3799000  -681.25737      181.30582      220.67363      0.5          
   3800000  -681.34467     -262.56327      217.67674      0.5          
   3801000  -681.31924      59.157752      220.26845      0.5          
   3802000  -681.36084      178.49716      219.30586      0.5          
   3803000  -681.27413     -180.31437      218.87299      0.5          
   3804000  -681.13272     -206.52669      219.38933      0.5          
   3805000  -681.0187       303.62974      221.26559      0.5          
   3806000  -681.22443     -116.53443      217.34556      0.5          
   3807000  -681.20293     -50.290083      221.39804      0.5          
   3808000  -680.99212      286.82178      219.04978      0.5          
   3809000  -680.85391     -34.467771      220.26807      0.5          
   3810000  -680.64713      66.522384      218.78355      0.5          
   3811000  -680.77649     -140.71987      220.98541      0.5          
   3812000  -681.1302      -393.80842      219.53753      0.5          
   3813000  -680.83012      47.390761      221.30877      0.5          
   3814000  -680.74498      18.387844      217.73971      0.5          
   3815000  -680.61246     -184.85196      219.26306      0.5          
   3816000  -680.80814      78.150054      220.90159      0.5          
   3817000  -680.43135     -318.96486      218.64837      0.5          
   3818000  -680.41007     -378.8737       219.45246      0.5          
   3819000  -680.55095      390.16759      218.9494       0.5          
   3820000  -680.67902     -9.2466212      217.84579      0.5          
   3821000  -680.80076     -18.694828      219.91918      0.5          
   3822000  -680.69736      78.605702      219.58506      0.5          
   3823000  -680.51502     -96.429599      217.87073      0.5          
   3824000  -680.43721     -102.77395      219.10043      0.5          
   3825000  -680.60115      143.75798      217.46983      0.5          
   3826000  -680.48704      211.20355      218.37639      0.5          
   3827000  -680.52705     -29.182404      219.28012      0.5          
   3828000  -680.14964      115.51378      217.96579      0.5          
   3829000  -680.51689     -2.9750215      219.00046      0.5          
   3830000  -680.58075     -241.00522      219.7498       0.5          
   3831000  -680.50519      27.895064      219.7738       0.5          
   3832000  -680.36553      265.67213      216.33315      0.5          
   3833000  -680.28449     -118.56635      217.85097      0.5          
   3834000  -680.60785     -135.24224      222.32702      0.5          
   3835000  -680.31405     -188.57874      217.57644      0.5          
   3836000  -680.4435      -146.00876      217.26858      0.5          
   3837000  -680.43663     -0.055578439    221.17889      0.5          
   3838000  -680.31448     -120.7061       218.26701      0.5          
   3839000  -680.2996      -1.1942794      217.00901      0.5          
   3840000  -680.33316      53.309477      219.82238      0.5          
   3841000  -680.10962     -110.37462      217.20738      0.5          
   3842000  -680.24578      144.02066      221.72381      0.5          
   3843000  -680.27927     -7.088657       221.07931      0.5          
   3844000  -680.15609     -92.054969      219.67593      0.5          
   3845000  -680.39732     -132.9923       217.99854      0.5          
   3846000  -679.92808      104.80666      217.46314      0.5          
   3847000  -680.66935     -90.031221      217.52756      0.5          
   3848000  -680.3228      -175.63709      217.96592      0.5          
   3849000  -680.39992      34.217567      220.83126      0.5          
   3850000  -680.17293      151.7018       220.88146      0.5          
   3851000  -680.26475     -150.5248       218.91768      0.5          
   3852000  -680.3563      -39.124185      218.41185      0.5          
   3853000  -680.0913      -126.72597      218.38879      0.5          
   3854000  -680.1206      -212.14148      218.98539      0.5          
   3855000  -680.04679      253.26191      218.90348      0.5          
   3856000  -680.32282     -125.88171      218.05844      0.5          
   3857000  -680.2246       40.25984       218.89932      0.5          
   3858000  -680.39188      66.247906      219.45207      0.5          
   3859000  -680.22747     -50.155212      217.90923      0.5          
   3860000  -680.08594     -108.79437      216.53578      0.5          
   3861000  -679.95556     -254.69154      217.75152      0.5          
   3862000  -680.42554     -141.78295      217.75453      0.5          
   3863000  -680.14317      44.67          219.80484      0.5          
   3864000  -680.01343      108.60623      219.56626      0.5          
   3865000  -680.06547     -260.98484      219.95632      0.5          
   3866000  -680.1501       71.965234      221.31262      0.5          
   3867000  -680.43218      22.483159      221.09729      0.5          
   3868000  -680.37757      232.15696      221.72784      0.5          
   3869000  -679.83895      6.7357102      221.30593      0.5          
   3870000  -680.34609      75.283422      223.20908      0.5          
   3871000  -680.06771     -70.609312      222.85829      0.5          
   3872000  -680.16251      52.298794      224.93207      0.5          
   3873000  -680.14252      39.198962      221.48856      0.5          
   3874000  -680.45112      226.97585      222.74168      0.5          
   3875000  -680.37361      117.45564      222.19034      0.5          
   3876000  -680.1261      -163.14471      219.78849      0.5          
   3877000  -680.39152     -85.159878      218.41501      0.5          
   3878000  -680.36345      11.670026      223.69631      0.5          
   3879000  -680.37925      174.20084      220.00231      0.5          
   3880000  -680.47562      93.180829      219.67943      0.5          
   3881000  -680.09603     -51.484709      218.72992      0.5          
   3882000  -680.17863      185.60246      220.54012      0.5          
   3883000  -680.38666     -74.748498      219.55981      0.5          
   3884000  -680.48471     -233.11411      219.34702      0.5          
   3885000  -680.26397     -76.461794      218.38702      0.5          
   3886000  -680.16459      74.342574      216.60547      0.5          
   3887000  -680.27215     -10.940893      218.71737      0.5          
   3888000  -680.61315     -66.81548       218.18861      0.5          
   3889000  -680.53993     -33.595532      218.94318      0.5          
   3890000  -680.26213     -66.008622      216.76403      0.5          
   3891000  -680.08166      11.162033      218.50763      0.5          
   3892000  -680.6101      -69.694639      217.87076      0.5          
   3893000  -680.76257     -153.1861       219.21844      0.5          
   3894000  -680.39681      122.15247      214.31425      0.5          
   3895000  -680.34667      136.81865      217.19463      0.5          
   3896000  -680.47126     -12.025577      218.17143      0.5          
   3897000  -680.61774      188.24585      216.71641      0.5          
   3898000  -680.37738      67.254422      217.65998      0.5          
   3899000  -680.10276     -80.22903       215.5113       0.5          
   3900000  -680.68009      67.622226      217.65802      0.5          
   3901000  -680.98916      115.64571      222.26758      0.5          
   3902000  -680.47361      114.10564      220.37843      0.5          
   3903000  -680.85375     -217.59651      218.50679      0.5          
   3904000  -680.76731     -32.398613      217.74121      0.5          
   3905000  -680.54191      448.60206      218.10944      0.5          
   3906000  -680.31691     -314.92154      217.69342      0.5          
   3907000  -680.31842     -82.227137      220.6689       0.5          
   3908000  -680.53758      202.93072      218.09217      0.5          
   3909000  -680.48841     -22.669732      218.60478      0.5          
   3910000  -680.52511     -153.34014      218.99102      0.5          
   3911000  -680.51525     -153.25369      221.94039      0.5          
   3912000  -680.23231      148.88866      220.90586      0.5          
   3913000  -680.30383      232.45068      220.19637      0.5          
   3914000  -680.40972      167.20399      219.37505      0.5          
   3915000  -680.469       -379.77035      222.60185      0.5          
   3916000  -680.34082      61.034379      219.57805      0.5          
   3917000  -680.03207      134.86192      219.32636      0.5          
   3918000  -680.26554     -38.009082      219.44635      0.5          
   3919000  -680.42231      182.49994      220.70162      0.5          
   3920000  -680.13832      175.16797      218.7482       0.5          
   3921000  -680.41567     -83.470212      217.06728      0.5          
   3922000  -680.33434     -174.33686      215.8503       0.5          
   3923000  -680.56605     -32.167454      220.21473      0.5          
   3924000  -680.46928      90.450628      219.78512      0.5          
   3925000  -680.62831     -273.53326      219.10899      0.5          
   3926000  -680.93429      171.85396      219.03495      0.5          
   3927000  -680.94827     -138.5838       218.44666      0.5          
   3928000  -680.82587     -67.621187      218.98091      0.5          
   3929000  -680.84734      192.19048      219.83771      0.5          
   3930000  -681.05282     -185.23139      218.10214      0.5          
   3931000  -680.81068      30.253442      219.8338       0.5          
   3932000  -680.59427      32.01977       216.76906      0.5          
   3933000  -680.73443      21.912302      218.7613       0.5          
   3934000  -680.76906     -96.729535      217.79557      0.5          
   3935000  -680.85169      67.257554      217.8109       0.5          
   3936000  -680.6829       105.34609      217.22848      0.5          
   3937000  -680.85761     -103.79994      220.24575      0.5          
   3938000  -680.84713     -107.60805      219.42529      0.5          
   3939000  -681.03029      218.75838      219.39733      0.5          
   3940000  -680.9796       90.695665      218.1937       0.5          
   3941000  -680.72034     -200.63427      216.68096      0.5          
   3942000  -680.75007      143.99962      214.82944      0.5          
   3943000  -680.82113      10.232806      216.74478      0.5          
   3944000  -680.89936     -74.105367      218.59257      0.5          
   3945000  -680.78052     -97.048195      218.6653       0.5          
   3946000  -680.78075      67.50648       220.76745      0.5          
   3947000  -680.92047     -100.51986      219.91016      0.5          
   3948000  -681.0587       5.2345092      222.63097      0.5          
   3949000  -680.63098     -27.283331      218.18419      0.5          
   3950000  -680.95827      74.063074      217.56061      0.5          
   3951000  -680.83845      228.81477      219.77981      0.5          
   3952000  -680.8417      -27.228933      219.83337      0.5          
   3953000  -680.75054     -85.096282      221.09311      0.5          
   3954000  -680.8904       86.985174      220.93416      0.5          
   3955000  -680.7851      -62.077235      220.01553      0.5          
   3956000  -680.49435     -141.92152      220.87465      0.5          
   3957000  -680.61841      154.23289      220.15698      0.5          
   3958000  -680.80621     -35.901023      220.55383      0.5          
   3959000  -680.77588      23.282485      220.2049       0.5          
   3960000  -680.54604      202.24638      220.13441      0.5          
   3961000  -680.35016     -396.05289      218.95         0.5          
   3962000  -680.74364     -77.189189      216.15097      0.5          
   3963000  -680.82714      167.10287      222.19067      0.5          
   3964000  -680.25251     -109.65302      217.82282      0.5          
   3965000  -680.386        189.81048      217.2231       0.5          
   3966000  -680.57902      44.444695      218.41632      0.5          
   3967000  -680.89924     -163.71256      218.90198      0.5          
   3968000  -680.9004      -206.87426      221.15833      0.5          
   3969000  -680.4292       20.169816      218.62381      0.5          
   3970000  -680.44327      92.961871      218.47917      0.5          
   3971000  -680.94604     -281.44798      215.84899      0.5          
   3972000  -680.88412      229.47494      217.67915      0.5          
   3973000  -680.81277     -20.013649      220.76464      0.5          
   3974000  -680.83815     -124.22264      219.98999      0.5          
   3975000  -680.39938     -119.73681      216.62359      0.5          
   3976000  -680.50484      170.07459      217.7583       0.5          
   3977000  -680.56621      214.71649      219.00444      0.5          
   3978000  -680.59982     -140.79286      218.76082      0.5          
   3979000  -680.3212      -96.745089      216.75091      0.5          
   3980000  -680.72459     -138.73646      218.57683      0.5          
   3981000  -680.4362      -92.563112      216.88414      0.5          
   3982000  -680.57823     -231.30457      219.17353      0.5          
   3983000  -680.5458       42.760003      219.36577      0.5          
   3984000  -680.34548     -268.07718      219.49748      0.5          
   3985000  -680.82277      66.704594      219.73402      0.5          
   3986000  -680.64147      180.5036       221.97517      0.5          
   3987000  -680.78479     -20.120218      219.65125      0.5          
   3988000  -680.77323     -10.753485      219.38891      0.5          
   3989000  -680.97154      8.9256759      219.46907      0.5          
   3990000  -680.9688       170.30372      218.05796      0.5          
   3991000  -680.98811     -22.203249      218.20489      0.5          
   3992000  -680.89412      79.830154      218.54388      0.5          
   3993000  -681.02065      48.462005      217.7192       0.5          
   3994000  -681.02405     -237.29981      218.31811      0.5          
   3995000  -680.98603      30.899012      218.17336      0.5          
   3996000  -680.76596      18.18186       219.56006      0.5          
   3997000  -681.05901      56.595912      221.38134      0.5          
   3998000  -681.1256       84.273833      218.21111      0.5          
   3999000  -681.25571     -137.66129      218.95599      0.5          
   4000000  -681.13246     -42.2336        219.75781      0.5          
Loop time of 10540.8 on 12 procs for 2000000 steps with 7050 atoms

Performance: 8.197 ns/day, 2.928 hours/ns, 189.739 timesteps/s, 1.338 Matom-step/s
99.4% CPU use with 12 MPI tasks x 1 OpenMP threads

MPI task timing breakdown:
Section |  min time  |  avg time  |  max time  |%varavg| %total
---------------------------------------------------------------
Pair    | 5993.3     | 7283       | 8450.7     |1059.2 | 69.09
Bond    | 31.548     | 32.411     | 33.823     |  11.4 |  0.31
Kspace  | 1544.7     | 2715.9     | 4007.5     |1745.3 | 25.77
Neigh   | 68.811     | 69.008     | 69.217     |   1.7 |  0.65
Comm    | 279.32     | 314.38     | 342.93     | 124.8 |  2.98
Output  | 0.07886    | 0.20838    | 1.5909     |  91.3 |  0.00
Modify  | 99.429     | 115.2      | 139.32     | 142.8 |  1.09
Other   |            | 10.75      |            |       |  0.10

Nlocal:          587.5 ave         626 max         557 min
Histogram: 2 2 0 2 1 1 2 0 1 1
Nghost:        6798.33 ave        8347 max        5916 min
Histogram: 6 2 0 0 0 0 0 0 0 4
Neighs:         254752 ave      292307 max      207905 min
Histogram: 1 1 2 0 0 1 1 4 0 2

Total # of neighbors = 3057029
Ave neighs/atom = 433.62113
Ave special neighs/atom = 2
Neighbor list builds = 8217
Dangerous builds = 0
System init for write_data ...
PPPM initialization ...
  using 12-bit tables for long-range coulomb (src/kspace.cpp:342)
  G vector (1/distance) = 0.20169663
  grid = 24 24 80
  stencil order = 5
  estimated absolute RMS force accuracy = 0.00286774
  estimated relative force accuracy = 8.6361139e-06
  using single precision FFTW3
  3d grid and FFT values/proc = 14801 5040
Generated 1 of 1 mixed pair_coeff terms from arithmetic mixing rule
Last active /omp style is kspace_style pppm/omp
