ITEM: TIMESTEP
0
ITEM: NUMBER OF NODES
96
ITEM: BOX BOUNDS
0 40
0 40
0 240
ITEM: NODES
1 1 0 0 0
2 1 18.75 0 0
3 1 18.75 18.75 0
4 1 0 18.75 0
5 1 0 0 105
6 1 18.75 0 105
7 1 18.75 18.75 105
8 1 0 18.75 105
9 1 0 0 105
10 1 18.75 0 105
11 1 18.75 18.75 105
12 1 0 18.75 105
13 1 0 0 135
14 1 18.75 0 135
15 1 18.75 18.75 135
16 1 0 18.75 135
17 1 0 0 135
18 1 18.75 0 135
19 1 18.75 18.75 135
20 1 0 18.75 135
21 1 0 0 240
22 1 18.75 0 240
23 1 18.75 18.75 240
24 1 0 18.75 240
25 1 0 18.75 0
26 1 18.75 18.75 0
27 1 18.75 40 0
28 1 0 40 0
29 1 0 18.75 105
30 1 18.75 18.75 105
31 1 18.75 40 105
32 1 0 40 105
33 1 0 18.75 105
34 1 18.75 18.75 105
35 1 18.75 40 105
36 1 0 40 105
37 1 0 18.75 135
38 1 18.75 18.75 135
39 1 18.75 40 135
40 1 0 40 135
41 1 0 18.75 135
42 1 18.75 18.75 135
43 1 18.75 40 135
44 1 0 40 135
45 1 0 18.75 240
46 1 18.75 18.75 240
47 1 18.75 40 240
48 1 0 40 240
49 1 18.75 0 0
50 1 40 0 0
51 1 40 18.75 0
52 1 18.75 18.75 0
53 1 18.75 0 105
54 1 40 0 105
55 1 40 18.75 105
56 1 18.75 18.75 105
57 1 18.75 0 105
58 1 40 0 105
59 1 40 18.75 105
60 1 18.75 18.75 105
61 1 18.75 0 135
62 1 40 0 135
63 1 40 18.75 135
64 1 18.75 18.75 135
65 1 18.75 0 135
66 1 40 0 135
67 1 40 18.75 135
68 1 18.75 18.75 135
69 1 18.75 0 240
70 1 40 0 240
71 1 40 18.75 240
72 1 18.75 18.75 240
73 1 18.75 18.75 0
74 1 40 18.75 0
75 1 40 40 0
76 1 18.75 40 0
77 1 18.75 18.75 105
78 1 40 18.75 105
79 1 40 40 105
80 1 18.75 40 105
81 1 18.75 18.75 105
82 1 40 18.75 105
83 1 40 40 105
84 1 18.75 40 105
85 1 18.75 18.75 135
86 1 40 18.75 135
87 1 40 40 135
88 1 18.75 40 135
89 1 18.75 18.75 135
90 1 40 18.75 135
91 1 40 40 135
92 1 18.75 40 135
93 1 18.75 18.75 240
94 1 40 18.75 240
95 1 40 40 240
96 1 18.75 40 240
ITEM: TIMESTEP
0
ITEM: NUMBER OF CUBES
12
ITEM: CUBES
1 1 1 2 3 4 5 6 7 8
2 1 9 10 11 12 13 14 15 16
3 1 17 18 19 20 21 22 23 24
4 1 25 26 27 28 29 30 31 32
5 1 33 34 35 36 37 38 39 40
6 1 41 42 43 44 45 46 47 48
7 1 49 50 51 52 53 54 55 56
8 1 57 58 59 60 61 62 63 64
9 1 65 66 67 68 69 70 71 72
10 1 73 74 75 76 77 78 79 80
11 1 81 82 83 84 85 86 87 88
12 1 89 90 91 92 93 94 95 96
