LAMMPS data file via write_data, version 29 Aug 2024, timestep = 0, units = real

7050 atoms
2 atom types
4700 bonds
1 bond types
2350 angles
1 angle types

0 40 xlo xhi
0 40 ylo yhi
0 240 zlo zhi

Masses

1 12.0107
2 15.9994

Pair Coeffs # lj/cut/coul/long/omp

1 0.0536545 2.8
2 0.156989 3.05

Bond Coeffs # harmonic/omp

1 1028.27 1.16

Angle Coeffs # harmonic/omp

1 55.96 180

Atoms # full

6936 2312 2 -0.35 13.218599812133606 27.25430082779758 2.6586195019709673 0 0 0
6935 2312 2 -0.35 14.466859199740286 28.721145858895603 1.3639068241634111 0 0 0
6934 2312 1 0.7 13.84201361369065 27.990893525020134 2.013591381460116 0 0 0
6900 2300 2 -0.35 12.5028652769965 28.429442074233034 5.939337713233135 0 0 0
6899 2300 2 -0.35 14.670078908757848 28.47535432547006 5.109935837466381 0 0 0
6898 2300 1 0.7 13.586346090613466 28.451241800611776 5.523813115747945 0 0 0
6943 2315 1 0.7 12.833992894151187 32.07413317330798 7.153462687928177 0 0 0
6945 2315 2 -0.35 13.356218476043406 31.412368467289767 6.355301130448167 0 0 0
6897 2299 2 -0.35 10.810293584638647 31.525084877465467 4.609600879164689 0 0 0
6896 2299 2 -0.35 12.212001362658375 30.180546386855067 3.3393937707983157 0 0 0
6895 2299 1 0.7 11.509815124634342 30.85179510136988 3.9744047574765036 0 0 0
6944 2315 2 -0.35 12.315076666037898 32.73539163599699 7.952428490110783 0 0 0
6912 2304 2 -0.35 13.088357904162915 17.66389801566024 9.245842493092464 0 0 0
6911 2304 2 -0.35 11.771613130520912 15.884954522138196 9.941524807688824 0 0 0
6910 2304 1 0.7 12.429982228607797 16.774424773443386 9.593678998350628 0 0 0
6932 2311 2 -0.35 18.686762665521417 6.628109439249988 32.29069225747976 0 0 0
6903 2301 2 -0.35 16.671051324093064 9.525024955891796 31.25063590624196 0 0 0
6902 2301 2 -0.35 15.845602780493987 7.734606310800354 32.47442165614473 0 0 0
6901 2301 1 0.7 16.260124066554905 8.629256215264094 31.862354618654617 0 0 0
6931 2311 1 0.7 18.297774602336318 5.721054407609196 32.901098451150474 0 0 0
6933 2311 2 -0.35 17.912482804846885 4.812716316985291 33.5111301742268 0 0 0
6942 2314 2 -0.35 17.145822040748133 26.301976336865646 32.862355715525176 0 0 0
6941 2314 2 -0.35 15.378192049793437 25.557542198992053 34.16766942139436 0 0 0
6940 2314 1 0.7 16.261668247361428 25.929506256449514 33.51436952443968 0 0 0
6921 2307 2 -0.35 10.705866677579326 19.726137182865305 38.073857151914225 0 0 0
6927 2309 2 -0.35 8.639608210143235 22.564487109577076 36.88660491756228 0 0 0
6926 2309 2 -0.35 8.132109887973316 24.447449302771837 38.14411108797674 0 0 0
6925 2309 1 0.7 8.386933261258184 23.50557795683037 37.516989916905864 0 0 0
6920 2307 2 -0.35 10.171384596293269 21.592448201793584 39.34493238717768 0 0 0
6919 2307 1 0.7 10.43769093514797 20.659851599714003 38.707587847368764 0 0 0
6939 2313 2 -0.35 8.609621069542051 1.2343457617332074 46.167451114758535 0 0 0
6938 2313 2 -0.35 6.593586757219509 0.7805782061787016 47.22244228185456 0 0 0
6937 2313 1 0.7 7.601397878056404 1.0074791004166437 46.69504931973972 0 0 0
6915 2305 2 -0.35 10.80133923052267 0.8990083136422774 43.82999679398831 0 0 0
6914 2305 2 -0.35 11.524219664655046 2.443270027611858 45.404118584729424 0 0 0
6913 2305 1 0.7 11.157545826973692 1.6703103272546034 44.62029665437606 0 0 0
6930 2310 2 -0.35 1.1367010105761919 16.109363403921968 48.66165852948403 0 0 0
6929 2310 2 -0.35 1.305197078692779 16.806068996958505 46.45515847594005 0 0 0
6928 2310 1 0.7 1.2212231228747954 16.457396544765448 47.55833637013657 0 0 0
6908 2303 2 -0.35 18.259997323120103 22.91123955177186 61.576574584661394 0 0 0
6907 2303 1 0.7 18.628286464089154 21.95195732923872 61.0382938827073 0 0 0
127 43 1 0.7 4.666489437235489 7.669925734719791 82.04338532526025 0 0 0
128 43 2 -0.35 5.05457743831908 6.763097885062151 81.43177993127689 0 0 0
129 43 2 -0.35 4.2742625449416405 8.578642652873624 82.64932749048049 0 0 0
427 143 1 0.7 5.168211677260269 3.9591112354899938 82.55568700877933 0 0 0
428 143 2 -0.35 4.1646600534202625 3.704161118141185 82.03039923884569 0 0 0
429 143 2 -0.35 6.171044418902498 4.206248567642052 83.08725958338614 0 0 0
769 257 1 0.7 8.511984791036626 2.347263915150846 82.94181418338174 0 0 0
770 257 2 -0.35 8.368280722424666 2.0946872571964685 84.06651494784472 0 0 0
771 257 2 -0.35 8.65230324245191 2.6037065832941604 81.81927263095604 0 0 0
2953 985 1 0.7 2.762190347723672 6.106182710425025 84.86627868151416 0 0 0
2954 985 2 -0.35 3.743132033497618 5.920303759527044 84.27466446400332 0 0 0
2955 985 2 -0.35 1.7853600228717168 6.2806036270079595 85.4684258239013 0 0 0
3338 1113 2 -0.35 7.140377858002613 7.436053889588726 83.71079839465973 0 0 0
3337 1113 1 0.7 8.27888279226648 7.310328235900659 83.5182988490323 0 0 0
6917 2306 2 -0.35 2.131688271210898 9.448155920317978 84.74709037759729 0 0 0
2930 977 2 -0.35 1.3188601128869255 4.013183178484956 83.3094108181106 0 1 0
1101 367 2 -0.35 8.81698199284641 8.994808845160312 85.8574773185345 0 0 0
1810 604 1 0.7 7.5377681247967 4.445247578541748 85.80521003915435 0 0 0
1812 604 2 -0.35 8.380135521390779 5.003668267654602 85.23487407661271 0 0 0
2454 818 2 -0.35 4.22054115866739 2.5161790343671835 85.0162277309337 0 0 0
4221 1407 2 -0.35 0.8523521751965709 7.072015172537407 82.61690176924894 1 0 0
3339 1113 2 -0.35 9.416947000529063 7.17983617109719 83.32765231886057 0 0 0
2929 977 1 0.7 1.4976531583785888 2.866575861392055 83.26727602639114 0 1 0
2931 977 2 -0.35 1.6739508140676223 1.720570554830006 83.22437430491782 0 1 0
2648 883 2 -0.35 5.573558630822186 0.9780252604811832 82.58123443192174 0 1 0
6436 2146 1 0.7 0.14998132444227105 32.27988977675553 137.90757767928258 1 0 0
352 118 1 0.7 11.986745135949072 0.4121608690922128 83.19273186252272 0 0 0
353 118 2 -0.35 10.836672507561136 0.435637907039756 83.03514179481378 0 0 0
354 118 2 -0.35 13.139076939127872 0.39833166274098425 83.33679878643194 0 0 0
2659 887 1 0.7 16.057155247051682 9.267524001416122 85.14976524624596 0 0 0
2926 976 1 0.7 12.386800938717053 7.746612775374586 83.25213020942718 0 0 0
2927 976 2 -0.35 12.686433958614982 6.657388911556864 83.51778934926391 0 0 0
2928 976 2 -0.35 12.08951903166224 8.83758844806473 82.98882143806382 0 0 0
3037 1013 1 0.7 13.388174295719145 3.404499749012722 83.9708260502148 0 0 0
3038 1013 2 -0.35 12.514158511819417 3.3835998152588154 83.20737592708174 0 0 0
3039 1013 2 -0.35 14.265365857117125 3.409351309033172 84.73198132220377 0 0 0
635 212 2 -0.35 11.469254697414161 1.6587268785332903 85.93241411109814 0 0 0
686 229 2 -0.35 11.373203497309394 4.687594385654722 85.80048077653471 0 0 0
894 298 2 -0.35 13.249050613095354 9.164280504766507 85.82180348375151 0 0 0
2660 887 2 -0.35 15.950136537712643 8.300278769288482 84.51643619780273 0 0 0
3395 1132 2 -0.35 16.44495826574801 5.354372102201417 83.09217532059579 0 0 0
814 272 1 0.7 17.404486028081745 2.836847568446281 85.64529579574436 0 0 0
3394 1132 1 0.7 17.43766168997759 5.845094790198949 83.44062658193187 0 0 0
816 272 2 -0.35 18.03778158635044 3.0992366395941517 84.70823007807726 0 0 0
3396 1132 2 -0.35 18.428259587637136 6.339946044382481 83.7882469348541 0 0 0
3266 1089 2 -0.35 9.073163619523571 10.212216561579876 82.7496383799055 0 0 0
6916 2306 1 0.7 3.0142936801180564 10.202832262310869 84.74973579843062 0 0 0
700 234 1 0.7 7.743006049802918 18.562083514219207 85.41567474543666 0 0 0
701 234 2 -0.35 8.118335687869596 18.849290926349134 84.35599889229556 0 0 0
763 255 1 0.7 6.5449610333592805 12.158495968397494 85.5004019201522 0 0 0
765 255 2 -0.35 7.034413389309803 11.306426633271636 84.8832933738736 0 0 0
6918 2306 2 -0.35 3.8920241819190764 10.963125198193795 84.76494526561575 0 0 0
4059 1353 2 -0.35 1.0109693523647312 16.734402257714965 85.01837424964701 1 0 0
2701 901 1 0.7 5.20319632868477 15.606948778308274 84.7763158018814 0 0 0
2702 901 2 -0.35 4.075851754156098 15.341565674370944 84.86050172510066 0 0 0
2703 901 2 -0.35 6.332820509860072 15.860152181875208 84.68346359471651 0 0 0
2725 909 1 0.7 4.492373035207428 19.44766796609174 83.72823553022475 0 0 0
2726 909 2 -0.35 5.012637044308574 18.42108849075324 83.58096808549251 0 0 0
2889 963 2 -0.35 8.797596612882618 13.970739936220147 84.71687200471393 0 0 0
4758 1586 2 -0.35 0.08489563709502722 19.602368847858997 85.6016811111398 1 0 0
2887 963 1 0.7 9.220301100150653 15.040278026860758 84.87645743925034 0 0 0
2661 887 2 -0.35 16.168151394562535 10.232441580902753 85.7865696934205 0 0 0
3265 1089 1 0.7 9.733836808027721 10.701295997002235 83.56873768667558 0 0 0
319 107 1 0.7 16.472880883627035 13.175704597081465 85.49201704190017 0 0 0
321 107 2 -0.35 16.963828701987126 12.989204298395316 84.45701143450805 0 0 0
322 108 1 0.7 11.245041960049749 18.643427764055204 84.50261519817764 0 0 0
324 108 2 -0.35 11.554224942111786 18.39501610788441 83.412594872832 0 0 0
1879 627 1 0.7 12.71244160691517 13.162580021321697 84.56547719357074 0 0 0
1880 627 2 -0.35 12.00747287903689 14.006576587311589 84.19267668606118 0 0 0
1881 627 2 -0.35 13.415476915596795 12.318470666302222 84.94071806479624 0 0 0
2464 822 1 0.7 14.908338482120097 16.398461668113924 83.90532756265472 0 0 0
2465 822 2 -0.35 14.868373225153418 15.240999631838438 83.98644147843244 0 0 0
2466 822 2 -0.35 14.944634069438631 17.555300485798863 83.82131751988834 0 0 0
2888 963 2 -0.35 9.65280297865454 16.104596506037282 85.04354133481426 0 0 0
3267 1089 2 -0.35 10.402323709342246 11.193159701120408 84.38176504565733 0 0 0
323 108 2 -0.35 10.944180306658037 18.8849264098397 85.59815824509889 0 0 0
571 191 1 0.7 14.67457868990709 19.807637743292577 85.74071639411926 0 0 0
2727 909 2 -0.35 3.974637531186007 20.476592910859463 83.86955776781703 0 0 0
2129 710 2 -0.35 1.7439529648448682 22.326552424530178 85.028221942467 0 0 0
3360 1120 2 -0.35 4.831858483917428 23.49022517554479 84.45622013005158 0 0 0
2569 857 1 0.7 6.217009471114281 26.676162135638254 84.8815834022964 0 0 0
2570 857 2 -0.35 6.738009765742869 26.886589214892165 85.89759737981979 0 0 0
2571 857 2 -0.35 5.684330545918895 26.459567964452148 83.87381719746644 0 0 0
3359 1120 2 -0.35 3.623953347858353 23.486376490356168 82.47353368326186 0 0 0
3358 1120 1 0.7 4.219565494103383 23.492217928639906 83.46902758244497 0 0 0
3199 1067 1 0.7 7.917298823535166 23.256313384595252 84.29094457484126 0 0 0
3200 1067 2 -0.35 8.175481953953097 24.38385797054102 84.38438588278615 0 0 0
3201 1067 2 -0.35 7.648980189154084 22.13131112499926 84.19930766270507 0 0 0
4962 1654 2 -0.35 2.0348277189014663 25.382643002441345 84.41189964764837 1 0 0
4960 1654 1 0.7 0.9565226740061131 25.098392222828117 84.7342492527202 1 0 0
2120 707 2 -0.35 8.930992644970319 27.75072437493469 83.82563720872083 0 0 0
1884 628 2 -0.35 15.33532316791142 28.28558691469507 83.4076493520839 0 0 0
1888 630 1 0.7 12.113017959702576 22.656634910266444 84.57259850354819 0 0 0
1889 630 2 -0.35 11.096908569687136 22.13045333651105 84.37736234413528 0 0 0
2119 707 1 0.7 9.911795999776094 28.28180850517106 84.14619973379773 0 0 0
2121 707 2 -0.35 10.896628970011433 28.80979007096607 84.46061180786064 0 0 0
572 191 2 -0.35 13.742810008209274 20.218859736502377 85.1830537300798 0 0 0
1890 630 2 -0.35 13.12667844017533 23.18818847082765 84.76819960465365 0 0 0
2030 677 2 -0.35 16.262130610690026 23.000924476246578 85.60546929181106 0 0 0
2266 756 1 0.7 13.372109394452155 26.15532747064572 85.21622233169737 0 0 0
2267 756 2 -0.35 12.266524471063821 26.103350389679733 84.86669169586455 0 0 0
2268 756 2 -0.35 14.47988560985766 26.203225304556398 85.55810957237912 0 0 0
1882 628 1 0.7 15.841391540544963 28.591546553158913 84.40608687181323 0 0 0
1883 628 2 -0.35 16.32897661385363 28.897799921142884 85.41447055307599 0 0 0
2029 677 1 0.7 16.30209606630669 23.68595217551388 84.66940580683256 0 0 0
2031 677 2 -0.35 16.342796510095084 24.365445359348332 83.72971014468992 0 0 0
6024 2008 2 -0.35 18.459031788763472 27.10194171989684 83.65780668083937 0 0 0
1921 641 1 0.7 1.891428247153349 39.0886408758436 85.6457396407378 0 0 0
1923 641 2 -0.35 1.6051803036956291 38.02870329603074 85.2697734679121 0 0 0
2593 865 1 0.7 7.836877245102985 39.518876238383676 85.48991841435331 0 0 0
2594 865 2 -0.35 6.790756461831056 39.420254868701576 84.9971609256621 0 0 0
2647 883 1 0.7 4.800661852724991 0.2577789190598763 83.06329363023258 0 1 0
2649 883 2 -0.35 4.030009243867548 39.535647335437076 83.54449407055196 0 0 0
2360 787 2 -0.35 15.154085614793843 38.130847336450934 84.56818851279178 0 -1 0
2390 797 2 -0.35 12.217686031804973 35.56741154560375 83.88834126326708 0 0 0
6906 2302 2 -0.35 15.731366154002442 31.535821134712926 82.35743631862091 0 0 0
6905 2302 2 -0.35 16.1903259851703 33.796564838617996 82.6132619830135 0 0 0
6904 2302 1 0.7 15.959515474899131 32.66641586088845 82.48578813191378 0 0 0
2389 797 1 0.7 12.714653410211517 34.544475247648776 83.65751515499983 0 0 0
2391 797 2 -0.35 13.21405286972641 33.52404345539235 83.41904215877095 0 0 0
3342 1114 2 -0.35 17.199713253547404 35.893943320847995 84.89008687588701 0 0 0
3341 1114 2 -0.35 15.177285454978 34.898016825119264 85.44791688467669 0 0 0
3340 1114 1 0.7 16.190146626299 35.394796922728936 85.17005687662873 0 0 0
2980 994 1 0.7 12.941232819619298 30.58120470208259 83.36432443914858 0 0 0
2981 994 2 -0.35 12.413482488803611 30.596840419980968 82.33105765979357 0 0 0
2982 994 2 -0.35 13.475589272791668 30.559400258222794 84.39590400039089 0 0 0
2359 787 1 0.7 16.009252176433627 38.91145737586091 84.65763486275051 0 -1 0
2361 787 2 -0.35 16.872343784484244 39.68431967210196 84.73805565036358 0 -1 0
691 231 1 0.7 9.849527503536665 32.45700001118984 85.59225549832556 0 0 0
692 231 2 -0.35 10.388190480286621 32.076245701729654 84.63688234854484 0 0 0
1109 370 2 -0.35 11.744821237880997 38.470323243870716 85.32414101272079 0 0 0
1332 444 2 -0.35 16.156726061548873 32.00695320818711 85.37381731523463 0 0 0
1099 367 1 0.7 8.914117189587179 8.900110864347441 87.00997342162924 0 0 0
1811 604 2 -0.35 6.691846643484288 3.8923476209134185 86.37646585842933 0 0 0
2452 818 1 0.7 4.172975781030178 2.415822513945821 86.17176366610742 0 0 0
2548 850 1 0.7 5.590482026053801 7.663472471839913 86.57034409159036 0 0 0
2549 850 2 -0.35 6.56815726969655 7.1515530088686425 86.93160942963651 0 0 0
2550 850 2 -0.35 4.610276427655456 8.169436486557538 86.20891052410903 0 0 0
2453 818 2 -0.35 4.124545845504277 2.322688066120006 87.32791204539004 0 0 0
727 243 1 0.7 2.233595546359053 9.092674538707247 87.97627072103839 0 0 0
728 243 2 -0.35 1.764515253710518 8.059368083983058 88.22144466335797 0 0 0
817 273 1 0.7 7.077181876638113 1.8723369363475608 88.52209123098864 0 0 0
818 273 2 -0.35 7.343080185884156 2.742870551426237 89.24206821658483 0 0 0
1100 367 2 -0.35 9.016948335052481 8.799168001860789 88.16160356328864 0 0 0
1339 447 1 0.7 2.9641758084442777 5.179786015681907 88.11252434358174 0 0 0
1340 447 2 -0.35 2.0132905617944243 4.944389328154712 88.73405025917653 0 0 0
1341 447 2 -0.35 3.9076800409363006 5.4126092928177245 87.47730038523108 0 0 0
1503 501 2 -0.35 4.6118612078819465 7.876698674815892 89.44681974329067 0 0 0
2878 960 1 0.7 8.233470045944992 5.75101339076701 89.13128152003836 0 0 0
2879 960 2 -0.35 8.932955369757984 5.46305941546414 88.25093615377389 0 0 0
2880 960 2 -0.35 7.520176585697314 6.040766357753905 90.00003370905695 0 0 0
819 273 2 -0.35 6.8053206310726395 0.9980236821462918 87.80877159961905 0 0 0
4351 1451 1 0.7 0.5426494942479416 2.547773658934248 86.8940518521881 1 0 0
4352 1451 2 -0.35 1.378496432033467 3.1396369038655947 86.34566646732668 1 0 0
550 184 1 0.7 4.04940491941686 0.5419810728318045 89.61648866917587 0 1 0
506 169 2 -0.35 7.2287971067826335 9.11099014396669 90.50376922154678 0 0 0
1018 340 1 0.7 5.599679474621588 4.151021258305684 91.14448871504415 0 0 0
1019 340 2 -0.35 4.80286817273238 4.505649490201961 90.37708103028706 0 0 0
1020 340 2 -0.35 6.401587558502535 3.8033633222983503 91.90918503224496 0 0 0
1501 501 1 0.7 4.8449053691882575 7.59135267148326 90.5484763702619 0 0 0
1502 501 2 -0.35 5.077425490993998 7.3068859154910255 91.6497650844236 0 0 0
505 169 1 0.7 8.235386768202636 9.453926203365764 90.96777735391814 0 0 0
552 184 2 -0.35 4.343412338776389 1.4706161193260152 90.24817493446396 0 1 0
1509 503 2 -0.35 8.996411076404655 1.147651529124757 91.84831771259724 0 1 0
39 13 2 -0.35 3.9063906624387146 4.112678934426449 93.48416461928161 0 0 0
420 140 2 -0.35 8.500240655018146 3.811748336427141 94.26768830927715 0 0 0
469 157 1 0.7 0.42526194323882 4.891944049676466 94.27519033307047 0 0 0
868 290 1 0.7 3.018370401334593 7.963104057685437 93.90063182751457 0 0 0
869 290 2 -0.35 3.4217886731074145 9.01602853241054 93.62565262985375 0 0 0
870 290 2 -0.35 2.6197582531448735 6.91163566707583 94.18501730627084 0 0 0
2731 911 1 0.7 1.4515049414819583 3.0647016584236395 90.86458164577904 0 0 0
2732 911 2 -0.35 1.350671655505862 2.1590549196896855 90.14469366330613 0 0 0
2733 911 2 -0.35 1.5649108203482593 3.976958575728096 91.57336477778627 0 0 0
3348 1116 2 -0.35 8.172260954858752 7.226468666323994 93.05829877991046 0 0 0
3347 1116 2 -0.35 6.38979161595433 6.1372082357273 94.07109866055072 0 0 0
3346 1116 1 0.7 7.276905727928242 6.688232689898144 93.56430887160482 0 0 0
3106 1036 1 0.7 0.9980260845798637 6.782530293873336 90.88522795168372 0 0 0
3108 1036 2 -0.35 2.099397887996256 7.021801341361931 91.16372130255881 0 0 0
966 322 2 -0.35 0.2987772135510222 9.170272375021636 92.52560078456555 0 0 0
507 169 2 -0.35 9.237832369337085 9.822202163800982 91.42349549952604 0 0 0
577 193 1 0.7 3.867596971600187 1.0992482692465282 93.07010460756683 0 0 0
579 193 2 -0.35 4.997640322163547 0.9092610715417311 93.25739039967806 0 0 0
578 193 2 -0.35 2.735595289083683 1.27441717641701 92.88698024038796 0 0 0
636 212 2 -0.35 9.551065091352745 2.4275836017703822 86.99183707576037 0 0 0
3174 1058 2 -0.35 14.04182488497671 6.09116227929699 86.25999750206246 0 0 0
634 212 1 0.7 10.509538357101317 2.042360385294591 86.46154206692216 0 0 0
685 229 1 0.7 11.178851318703446 5.800223242391157 86.06755815318085 0 0 0
687 229 2 -0.35 10.98070544282582 6.914427687320601 86.33002139242782 0 0 0
815 272 2 -0.35 16.770098529225145 2.579329219286935 86.58289141771355 0 0 0
892 298 1 0.7 12.426209665292959 9.629444369818554 86.49446315682161 0 0 0
3172 1058 1 0.7 15.174134579142908 5.841998919569843 86.22290343763287 0 0 0
3173 1058 2 -0.35 16.30846627965275 5.593820035722133 86.19116330158514 0 0 0
893 298 2 -0.35 11.595811687463883 10.090073129926552 87.16284552659371 0 0 0
341 114 2 -0.35 14.383287084109535 0.40241841462133515 86.51269012650701 0 0 0
1507 503 1 0.7 9.63382109461965 1.4834751149135335 90.93876904116223 0 1 0
1508 503 2 -0.35 10.274459835931177 1.8025171039504475 90.02476715309693 0 1 0
340 114 1 0.7 14.16245742562694 1.3437397042651364 87.15508126369112 0 0 0
342 114 2 -0.35 13.935019695116676 2.283352225877157 87.79901166035955 0 0 0
826 276 1 0.7 11.67920130479188 7.450963435337958 89.45459517966952 0 0 0
827 276 2 -0.35 12.634333216530658 7.689179956451641 88.83876890902889 0 0 0
1795 599 1 0.7 15.565468435133718 8.224620891360875 89.07239467822944 0 0 0
1797 599 2 -0.35 15.701109159265943 8.119066764259552 87.92511024360981 0 0 0
2040 680 2 -0.35 11.927720960934685 4.528444759604941 88.88968676724218 0 0 0
2915 972 2 -0.35 17.98552560151376 6.273598652955174 88.8853737333607 0 0 0
3046 1016 1 0.7 15.743290675152545 4.149958707537074 89.40367286654478 0 0 0
3047 1016 2 -0.35 15.131419628058266 5.067317610554352 89.0404236015246 0 0 0
4645 1549 1 0.7 17.83881392491181 0.5366586470672396 88.75316516138304 0 0 0
2914 972 1 0.7 18.635552739386007 6.562409387464295 87.96736714439879 0 0 0
828 276 2 -0.35 10.726486462771268 7.216969551160342 90.07469755823139 0 0 0
1552 518 1 0.7 17.294725062611988 6.55210818340598 91.83922313161493 0 0 0
1554 518 2 -0.35 18.208543051198145 7.267711106342436 91.84194879969813 0 0 0
1796 599 2 -0.35 15.445874636733398 8.35147623237911 90.21958011256204 0 0 0
2038 680 1 0.7 12.437199820017996 3.9074288747370827 89.72717386676379 0 0 0
2039 680 2 -0.35 12.948961857038483 3.294874821557823 90.5707981480644 0 0 0
3048 1016 2 -0.35 16.351219329395324 3.2326581021231573 89.77114149565699 0 0 0
277 93 1 0.7 18.494243748647804 3.0302993820490554 91.75032030916438 0 0 0
279 93 2 -0.35 18.16993551173775 2.0143250075688313 92.21041230304091 0 0 0
560 187 2 -0.35 17.417778083326365 4.174187935348154 94.26942495494228 0 0 0
1553 518 2 -0.35 16.37495442009597 5.844180635783674 91.82336267312304 0 0 0
2191 731 1 0.7 13.74736395370833 7.047992928621539 92.31356406264867 0 0 0
2192 731 2 -0.35 13.294518542289895 6.289013847701872 91.56023905733944 0 0 0
2193 731 2 -0.35 14.202407959726239 7.810534770231742 93.06213641500952 0 0 0
2866 956 1 0.7 10.569701303548447 4.794695869412425 92.4399831047715 0 0 0
2867 956 2 -0.35 11.194813922932942 5.051651963843566 93.3833912514942 0 0 0
2868 956 2 -0.35 9.953444282283975 4.524663902325049 91.49437817771212 0 0 0
3148 1050 1 0.7 14.835768203826426 0.9278645024661375 91.52568580822064 0 0 0
3149 1050 2 -0.35 14.814376380253819 1.1840844685909169 92.65757200339104 0 0 0
3150 1050 2 -0.35 14.85654317464713 0.6759796613864968 90.39313167889739 0 0 0
3235 1079 1 0.7 10.702086387723462 8.68627146236469 94.00751410510377 0 0 0
3236 1079 2 -0.35 11.197040596228897 8.15274467280398 93.10362393837836 0 0 0
1132 378 1 0.7 12.361649574917287 2.2268512857990768 94.21486588434476 0 1 0
1133 378 2 -0.35 11.738476365600036 1.9757087766822292 93.26750324128697 0 1 0
4646 1549 2 -0.35 18.682878648478496 1.111855352105355 89.30637919605833 0 0 0
4647 1549 2 -0.35 16.99722681856735 39.96324609118069 88.19633407329334 0 -1 0
7011 2337 2 -0.35 13.847656066557672 23.16786003728614 233.50367593228518 0 0 0
32 11 2 -0.35 18.44194283688648 9.706671205914798 88.01567505123961 0 0 0
702 234 2 -0.35 7.369253973906568 18.277357339679423 86.47726479714807 0 0 0
764 255 2 -0.35 6.061406796710759 13.018186144789947 86.11335324078253 0 0 0
1004 335 2 -0.35 3.8184114163353984 18.244287704559497 86.39883921155888 0 0 0
1493 498 2 -0.35 9.011626308276318 11.848481705462895 87.30810856639603 0 0 0
1969 657 1 0.7 2.650829774722487 13.036310327931133 86.88984906721176 0 0 0
1970 657 2 -0.35 1.8851225009146553 12.850862503494776 86.03683589181092 0 0 0
4057 1353 1 0.7 1.390799282554136 16.27291263498825 86.01282215212393 1 0 0
290 97 2 -0.35 6.015116300792108 10.508764879425298 87.9329730375115 0 0 0
729 243 2 -0.35 2.7111474770558908 10.121286657957748 87.72711934068819 0 0 0
2372 791 2 -0.35 2.5069707442514098 10.309681981388819 90.8008607565976 0 0 0
939 313 2 -0.35 6.517338277802446 10.032627262270402 93.30328076939567 0 0 0
2937 979 2 -0.35 8.46274971487987 14.939021948883532 87.87129159564812 0 0 0
289 97 1 0.7 5.552205649684847 10.962715684199567 88.89650794896158 0 0 0
291 97 2 -0.35 5.088604549080279 11.407412360964392 89.86318260800992 0 0 0
670 224 1 0.7 5.582984011102644 15.206663206427802 88.59480872546767 0 0 0
672 224 2 -0.35 5.36335727656785 15.857214486799467 87.6596178989002 0 0 0
1003 335 1 0.7 4.179955828787019 18.515507091009155 87.4683842968132 0 0 0
1005 335 2 -0.35 4.545422846415645 18.787596736069403 88.53723279674419 0 0 0
1474 492 1 0.7 0.13017945914167092 12.021780409191521 89.8246017886749 0 0 0
1476 492 2 -0.35 0.44996913480668493 12.103955614721832 88.71137879933092 0 0 0
1748 583 2 -0.35 7.944692401193153 12.472462397075157 90.4553215730899 0 0 0
1971 657 2 -0.35 3.418037755128052 13.226206650979524 87.74072163305284 0 0 0
2487 829 2 -0.35 1.369770563040367 18.66674739127101 88.38141176694171 0 0 0
2935 979 1 0.7 8.96378743539458 15.02228836101262 88.91512745222607 0 0 0
2950 984 1 0.7 7.420234066529982 18.745834620462404 89.40769714351767 0 0 0
2485 829 1 0.7 1.013875127106902 19.652968096291474 88.87927388954284 0 0 0
4058 1353 2 -0.35 1.7544116083433852 15.809893120506452 87.01326894900755 1 0 0
2952 984 2 -0.35 7.381290812490871 19.90489114695959 89.34637225799591 0 0 0
2371 791 1 0.7 2.758202508493712 11.053283397657898 91.65664359391505 0 0 0
671 224 2 -0.35 5.802001341987113 14.563212923738876 89.53547774705022 0 0 0
1747 583 1 0.7 8.542123423601328 12.669977277410043 91.43101098998655 0 0 0
1749 583 2 -0.35 9.16006335010719 12.847023006293616 92.39733525396676 0 0 0
1939 647 1 0.7 3.8046751386596083 18.309740164009323 91.41967407834582 0 0 0
1940 647 2 -0.35 2.792866213043318 18.80304567474517 91.13496673678736 0 0 0
1941 647 2 -0.35 4.825026818131197 17.8296112759617 91.69848167265259 0 0 0
2373 791 2 -0.35 3.0047406549129905 11.79847910605559 92.51244868135097 0 0 0
2951 984 2 -0.35 7.450673242272879 17.586571768821532 89.47530939715301 0 0 0
3070 1024 1 0.7 2.5979141584149676 14.987185345379531 90.13802319902774 0 0 0
3071 1024 2 -0.35 3.038417401087611 16.0054008863759 89.79693415968887 0 0 0
3072 1024 2 -0.35 2.1692115001706007 13.96475484863362 90.48250175490747 0 0 0
706 236 1 0.7 5.151306141854315 13.87039559365558 92.64618064486942 0 0 0
707 236 2 -0.35 4.409605676666622 14.752337289329704 92.50418025112923 0 0 0
708 236 2 -0.35 5.889166245837108 12.98716648606096 92.79632923347087 0 0 0
937 313 1 0.7 5.951151074315294 10.488316071680865 94.20886959104477 0 0 0
1123 375 1 0.7 1.1161571812493816 15.164598593020184 93.23715630785279 0 0 0
1125 375 2 -0.35 1.4406467238649836 16.08269149969702 92.60624362191238 0 0 0
1306 436 1 0.7 7.77348530529692 16.650510413832667 92.26669106961491 0 0 0
1308 436 2 -0.35 7.410228889099014 15.557779122426437 92.12470347406833 0 0 0
1307 436 2 -0.35 8.135016880167864 17.74555603982244 92.40114472544465 0 0 0
1124 375 2 -0.35 0.7992963865508382 14.242493541447493 93.86712344455938 0 0 0
7010 2337 2 -0.35 15.71265123151409 22.070715878030587 232.66670237458888 0 0 0
320 107 2 -0.35 15.979410867071088 13.35648413080748 86.5281849467332 0 0 0
573 191 2 -0.35 15.602450055106885 19.39716967792982 86.30349515329667 0 0 0
1492 498 1 0.7 9.951445117889818 12.498229293859774 87.10409833562771 0 0 0
1494 498 2 -0.35 10.883121526451866 13.162081165265189 86.90534152862736 0 0 0
1806 602 2 -0.35 16.26750558759096 16.38992303789169 86.67824223682827 0 0 0
2592 864 2 -0.35 12.99265057814543 16.52026957216677 86.11608251537254 0 0 0
1851 617 2 -0.35 12.226355103610898 10.20389528670633 90.51973841036042 0 0 0
1849 617 1 0.7 11.611433307114266 11.12383405817965 90.16972896152916 0 0 0
2936 979 2 -0.35 9.469373108972297 15.089681733812983 89.9577069035007 0 0 0
1850 617 2 -0.35 10.991641893679901 12.044981910795663 89.83175051525139 0 0 0
361 121 1 0.7 15.2823364580607 11.384226857743924 88.69612526914811 0 0 0
362 121 2 -0.35 16.32548575656366 11.675602337400305 89.11360648992921 0 0 0
363 121 2 -0.35 14.245403140229143 11.061670304918955 88.28802275800793 0 0 0
1804 602 1 0.7 15.640600227643183 16.464920177301014 87.65202470349416 0 0 0
1805 602 2 -0.35 14.99751822120186 16.53058646956775 88.61675448286614 0 0 0
1910 637 2 -0.35 18.30416708551139 17.935974910255826 88.44446763147168 0 0 0
2590 864 1 0.7 12.174157082897459 16.352231947999147 86.92164730952504 0 0 0
2591 864 2 -0.35 11.358846507457704 16.17845641829678 87.72843053259581 0 0 0
2671 891 1 0.7 11.420779916535212 17.171633229890144 90.45660060839684 0 0 0
2672 891 2 -0.35 10.635101265629702 17.96227187309059 90.13200915636513 0 0 0
2673 891 2 -0.35 12.211043531345313 16.379010189715974 90.7649076020537 0 0 0
1056 352 2 -0.35 12.990067252495757 18.943815341324186 88.207640306806 0 0 0
458 153 2 -0.35 17.489313040946662 14.72367354489354 89.25439536241775 0 0 0
1054 352 1 0.7 12.948688860875539 19.63228931131595 89.14194509379635 0 0 0
2270 757 2 -0.35 15.856302798213296 19.594389356130016 89.34509077783086 0 0 0
30 10 2 -0.35 12.924940008565585 10.804684265680333 93.75722010822531 0 0 0
28 10 1 0.7 13.703751574063274 11.109026035973699 92.95188528220794 0 0 0
29 10 2 -0.35 14.472701892799625 11.413314581795738 92.13642373861738 0 0 0
1021 341 1 0.7 15.683766297957467 17.822549823970384 91.56684416761014 0 0 0
1022 341 2 -0.35 14.569806380975711 18.113442678030204 91.71683267379086 0 0 0
1023 341 2 -0.35 16.79850223924217 17.533244179209085 91.4206979099065 0 0 0
1927 643 1 0.7 11.423228813019469 14.654514126020388 92.99528697386839 0 0 0
1928 643 2 -0.35 12.247556526601079 13.851667660379904 92.83378674604363 0 0 0
1929 643 2 -0.35 10.606672310053105 15.466030833429972 93.14577113648242 0 0 0
3022 1008 1 0.7 14.490957654492933 14.349119000268205 90.67226160167755 0 0 0
3023 1008 2 -0.35 13.96122230736134 13.719619406733573 89.85325970811488 0 0 0
3024 1008 2 -0.35 15.020487223193916 14.968334114993045 91.49837113715371 0 0 0
940 314 1 0.7 18.36365560674749 15.42046047877784 92.69911630150733 0 0 0
941 314 2 -0.35 17.594485012141597 15.430045157723269 93.56890915176918 0 0 0
1171 391 1 0.7 10.44871526970915 18.290616884606127 94.06044335045502 0 0 0
1172 391 2 -0.35 11.090349174559934 18.53668783095527 93.12477195508023 0 0 0
2686 896 1 0.7 17.441827446405814 11.727770323480144 92.22424767788173 0 0 0
2687 896 2 -0.35 17.504278265147512 10.642400151766292 92.6311762408832 0 0 0
2688 896 2 -0.35 17.371732451550855 12.809701568163518 91.8097555694379 0 0 0
3325 1109 1 0.7 14.897347242707523 14.524396664815324 94.3863840747009 0 0 0
3327 1109 2 -0.35 15.34381317859 13.458934694051203 94.26628347090514 0 0 0
457 153 1 0.7 18.40381825749514 14.008557398711147 89.27780148372958 0 0 0
31 11 1 0.7 18.581491350056112 10.689258690407172 87.41247155202444 0 0 0
33 11 2 -0.35 18.708937746815554 11.675861407532384 86.8156273886241 0 0 0
905 302 2 -0.35 5.711873953542802 20.8890741093254 86.44207166429729 0 0 0
94 32 1 0.7 2.9640348323739194 27.512696334854084 86.90026000660042 0 0 0
96 32 2 -0.35 3.9530921884956247 28.11098477674165 86.79358462865363 0 0 0
2130 710 2 -0.35 2.5337938651597525 21.085457276922185 86.82394987370067 0 0 0
904 302 1 0.7 6.117116289011436 21.919841082280925 86.78951791295427 0 0 0
2128 710 1 0.7 2.136801585369922 21.701145002572655 85.92327357161402 0 0 0