LAMMPS (29 Aug 2024 - Update 1)
  using 1 OpenMP thread(s) per MPI task
using multi-threaded neighbor list subroutines
Created orthogonal box = (0 0 0) to (40 40 240)
  2 by 1 by 1 MPI processor grid
Read molecule template co2mol:
# CO2 molecule file. TraPPE-Flex model.
  1 molecules
  0 fragments
  3 atoms with max type 2
  2 bonds with max type 1
  1 angles with max type 1
  0 dihedrals with max type 0
  0 impropers with max type 0
Molecule file loaded successfully
Created 6894 atoms
  using lattice units in orthogonal box = (0 0 0) to (40 40 240)
  create_atoms CPU = 0.875 seconds
Created 78 atoms
  using lattice units in orthogonal box = (0 0 0) to (40 40 240)
  create_atoms CPU = 0.004 seconds
Created 78 atoms
  using lattice units in orthogonal box = (0 0 0) to (40 40 240)
  create_atoms CPU = 0.004 seconds
Setting atom values ...
  2350 settings made for charge
Setting atom values ...
  4700 settings made for charge
lz=240
2350 atoms in group car
4700 atoms in group oxy
Balancing ...
PPPM initialization ...
  using 12-bit tables for long-range coulomb (src/kspace.cpp:342)
  G vector (1/distance) = 0.20169663
  grid = 24 24 80
  stencil order = 5
  estimated absolute RMS force accuracy = 0.00286774
  estimated relative force accuracy = 8.6361139e-06
  using single precision FFTW3
  3d grid and FFT values/proc = 50654 23040
Generated 1 of 1 mixed pair_coeff terms from arithmetic mixing rule
Last active /omp style is kspace_style pppm/omp
Neighbor list info ...
  update: every = 1 steps, delay = 0 steps, check = yes
  max neighbors/atom: 2000, page size: 100000
  master list distance cutoff = 17
  ghost atom cutoff = 17
  binsize = 8.5, bins = 5 5 29
  1 neighbor lists, perpetual/occasional/extra = 1 0 0
  (1) pair lj/cut/coul/long/omp, perpetual
      attributes: half, newton on, omp
      pair build: half/bin/newton/omp
      stencil: half/bin/3d
      bin: standard
 rebalancing time: 0.007 seconds
  iteration count = 4
  initial/final maximal load/proc = 3548 3722
  initial/final imbalance factor  = 1.0065248 1.0558865
  x cuts: 0 0.46875 1
  y cuts: 0 1
  z cuts: 0 1
PPPM initialization ...
  using 12-bit tables for long-range coulomb (src/kspace.cpp:342)
  G vector (1/distance) = 0.20169663
  grid = 24 24 80
  stencil order = 5
  estimated absolute RMS force accuracy = 0.00286774
  estimated relative force accuracy = 8.6361139e-06
  using single precision FFTW3
  3d grid and FFT values/proc = 53320 24960
Generated 1 of 1 mixed pair_coeff terms from arithmetic mixing rule
Last active /omp style is kspace_style pppm/omp
Setting up cg style minimization ...
  Unit style    : real
  Current step  : 0
Per MPI rank memory allocation (min/avg/max) = 24.62 | 24.93 | 25.23 Mbytes
   Step          Temp          E_pair         E_mol          TotEng         Press     
         0   0              49336.872      7.9026918e-12  49336.872      43177.231    
      3376   0             -11998.794      22.119582     -11976.675     -235.34144    
Loop time of 292.972 on 2 procs for 3376 steps with 7050 atoms

99.3% CPU use with 2 MPI tasks x 1 OpenMP threads

Minimization stats:
  Stopping criterion = energy tolerance
  Energy initial, next-to-last, final = 
      49336.8715498832  -11976.6642038788   -11976.674863598
  Force two-norm initial, final = 12256.268 6.4930699
  Force max component initial, final = 805.65186 0.64829729
  Final line search alpha, max atom move = 0.035523688 0.023029911
  Iterations, force evaluations = 3376 6698

MPI task timing breakdown:
Section |  min time  |  avg time  |  max time  |%varavg| %total
---------------------------------------------------------------
Pair    | 243.46     | 255.1      | 266.74     |  72.9 | 87.07
Bond    | 0.67458    | 0.69989    | 0.72519    |   3.0 |  0.24
Kspace  | 21.982     | 33.638     | 45.293     | 201.0 | 11.48
Neigh   | 1.8128     | 1.8129     | 1.813      |   0.0 |  0.62
Comm    | 1.1186     | 1.1365     | 1.1545     |   1.7 |  0.39
Output  | 0          | 0          | 0          |   0.0 |  0.00
Modify  | 0.070171   | 0.072119   | 0.074066   |   0.7 |  0.02
Other   |            | 0.515      |            |       |  0.18

Nlocal:           3525 ave        3666 max        3384 min
Histogram: 1 0 0 0 0 0 0 0 0 1
Nghost:        14320.5 ave       14709 max       13932 min
Histogram: 1 0 0 0 0 0 0 0 0 1
Neighs:    1.90912e+06 ave 1.98291e+06 max 1.83532e+06 min
Histogram: 1 0 0 0 0 0 0 0 0 1

Total # of neighbors = 3818230
Ave neighs/atom = 541.59291
Ave special neighs/atom = 2
Neighbor list builds = 37
Dangerous builds = 0
System init for write_data ...
PPPM initialization ...
  using 12-bit tables for long-range coulomb (src/kspace.cpp:342)
  G vector (1/distance) = 0.20169663
  grid = 24 24 80
  stencil order = 5
  estimated absolute RMS force accuracy = 0.00286774
  estimated relative force accuracy = 8.6361139e-06
  using single precision FFTW3
  3d grid and FFT values/proc = 53320 24960
Generated 1 of 1 mixed pair_coeff terms from arithmetic mixing rule
Last active /omp style is kspace_style pppm/omp
#Step Pxx Pyy Pzz
#Step temp press ke pe etotal ecouple econserve
#Step px py pz COM_vx COM_vy COM_vz
PPPM initialization ...
  using 12-bit tables for long-range coulomb (src/kspace.cpp:342)
  G vector (1/distance) = 0.20169663
  grid = 24 24 80
  stencil order = 5
  estimated absolute RMS force accuracy = 0.00286774
  estimated relative force accuracy = 8.6361139e-06
  using single precision FFTW3
  3d grid and FFT values/proc = 53320 24960
Generated 1 of 1 mixed pair_coeff terms from arithmetic mixing rule
Last active /omp style is kspace_style pppm/omp
Setting up Verlet run ...
  Unit style    : real
  Current step  : 0
  Time step     : 0.5
Per MPI rank memory allocation (min/avg/max) = 24.46 | 24.65 | 24.85 Mbytes
   Step         TotEng         Press           Temp            Dt      
         0  -7354.0943      314.94159      220            0.5          
      1000  -3301.8536      1657.6193      217.61559      0.5          
      2000  -2746.6053      1401.572       197.16148      0.5          
      3000  -2299.7419     -313.87293      212.6535       0.5          
      4000  -2209.0407      34.67536       226.92847      0.5          
      5000  -2089.5787      235.78028      223.93176      0.5          
      6000  -1761.6375     -25.76869       216.97112      0.5          
      7000  -1659.8013     -86.820462      211.55282      0.5          
      8000  -1452.6725     -36.549764      216.35809      0.5          
      9000  -1225.3522     -319.15089      221.07669      0.5          
     10000  -1029.5431     -246.60272      219.13825      0.5          
     11000  -809.79347     -105.56928      218.16853      0.5          
     12000  -777.28631     -175.06921      217.57636      0.5          
     13000  -573.63396     -612.99755      223.69808      0.5          
     14000  -593.15166     -45.447073      223.50098      0.5          
     15000  -683.30684      181.76214      223.00587      0.5          
     16000  -733.67571     -112.49657      220.27133      0.5          
     17000  -752.07631     -404.94142      219.98941      0.5          
     18000  -853.64533     -42.457735      221.32726      0.5          
     19000  -908.80201     -93.005848      219.37416      0.5          
     20000  -924.03306     -69.529063      218.65876      0.5          
     21000  -1027.7382     -61.438009      219.44809      0.5          
     22000  -973.62742      89.155694      218.17378      0.5          
     23000  -1006.4231      103.37215      218.47704      0.5          
     24000  -973.94693      0.12031968     218.80783      0.5          
     25000  -840.00116     -132.25033      219.91482      0.5          
     26000  -824.43105      10.049981      220.48322      0.5          
     27000  -860.03619      235.23034      218.72403      0.5          
     28000  -929.26393     -126.33651      219.32306      0.5          
     29000  -879.72592     -140.82628      219.82011      0.5          
     30000  -969.08752     -96.119269      216.31369      0.5          
     31000  -840.9447      -64.698087      222.49052      0.5          
     32000  -973.55841     -60.671508      216.73543      0.5          
     33000  -1003.9664      24.815511      216.56909      0.5          
     34000  -840.43901      83.935567      223.76443      0.5          
     35000  -934.65923     -6.8964492      216.39205      0.5          
     36000  -1026.7881     -31.44876       216.64891      0.5          
     37000  -993.72517      63.327766      218.09852      0.5          
     38000  -845.69082      82.863686      222.01448      0.5          
     39000  -846.59543      131.65916      223.46565      0.5          
     40000  -908.5412      -208.28604      219.86793      0.5          
     41000  -845.14178      11.182516      220.05607      0.5          
     42000  -825.75412     -46.137992      221.80715      0.5          
     43000  -738.46317      20.051142      224.88557      0.5          
     44000  -923.70559      260.47164      220.83534      0.5          
     45000  -883.29401      119.62192      218.4126       0.5          
     46000  -884.11217     -188.19871      221.23628      0.5          
     47000  -859.10004     -171.90068      220.97993      0.5          
     48000  -846.09288      78.653327      220.45692      0.5          
     49000  -848.44883     -105.71853      221.77092      0.5          
     50000  -776.65348     -90.330125      221.33054      0.5          
     51000  -892.30871      0.45610076     218.40415      0.5          
     52000  -844.96724     -309.75097      219.3268       0.5          
     53000  -903.23089      141.54512      218.45642      0.5          
     54000  -780.46704      224.6434       221.93687      0.5          
     55000  -981.83322     -174.67168      215.55601      0.5          
     56000  -875.59127      233.90174      217.00417      0.5          
     57000  -797.72438     -143.63528      221.12257      0.5          
     58000  -761.07194      74.514769      220.86339      0.5          
     59000  -843.14145      219.48222      220.71229      0.5          
     60000  -938.91491      79.514992      218.67859      0.5          
     61000  -818.94033     -112.48773      220.02278      0.5          
     62000  -883.62868     -141.50692      217.19586      0.5          
     63000  -925.66668     -38.698546      218.83356      0.5          
     64000  -714.39283      53.854257      223.48615      0.5          
     65000  -823.21733      71.711757      221.28501      0.5          
     66000  -916.32185      273.088        217.06332      0.5          
     67000  -915.74839     -220.23169      216.18631      0.5          
     68000  -896.31504     -200.3601       214.73405      0.5          
     69000  -760.97547      173.89285      221.12386      0.5          
     70000  -779.87742     -156.48397      222.52348      0.5          
     71000  -808.2025      -103.9232       223.99664      0.5          
     72000  -864.58765     -51.32837       218.56432      0.5          
     73000  -875.7068       198.81106      219.71707      0.5          
     74000  -797.20028      110.1262       223.20835      0.5          
     75000  -976.27098     -105.65886      218.29148      0.5          
     76000  -991.6812       74.196397      216.30981      0.5          
     77000  -978.23334      76.25642       216.18911      0.5          
     78000  -858.00164     -42.369008      219.75174      0.5          
     79000  -858.93096     -229.47668      217.67814      0.5          
     80000  -830.54981      332.45501      219.76416      0.5          
     81000  -837.54878     -253.8304       218.48336      0.5          
     82000  -789.21456     -54.676973      224.09403      0.5          
     83000  -822.73813     -56.351373      217.23893      0.5          
     84000  -810.07577     -74.742807      219.27572      0.5          
     85000  -791.24606     -63.688785      220.2746       0.5          
     86000  -830.70277      30.293236      220.38076      0.5          
     87000  -712.62829     -2.816709       221.6497       0.5          
     88000  -742.96581     -113.20396      222.64117      0.5          
     89000  -806.33418      57.392657      215.45681      0.5          
     90000  -819.11223      66.371742      217.5926       0.5          
     91000  -758.56614      115.11255      219.04286      0.5          
     92000  -704.36225     -23.290048      223.71393      0.5          
     93000  -831.89482     -171.41312      219.09522      0.5          
     94000  -779.85263     -41.723345      216.56143      0.5          
     95000  -776.37527     -85.503126      218.17974      0.5          
     96000  -820.8348       60.837481      214.80758      0.5          
     97000  -717.163        160.15424      220.2662       0.5          
     98000  -719.03201     -56.826175      220.91105      0.5          
     99000  -825.92029     -98.89098       218.1724       0.5          
    100000  -807.97903      78.393203      217.44912      0.5          
    101000  -755.78507     -124.27748      222.7612       0.5          
    102000  -796.86636     -22.591912      220.93059      0.5          
    103000  -697.58457      63.288034      222.60577      0.5          
    104000  -737.43948      104.68471      221.08192      0.5          
    105000  -734.87233     -194.80605      219.88062      0.5          
    106000  -811.10278     -51.30889       218.24313      0.5          
    107000  -831.43526      321.68648      219.94853      0.5          
    108000  -812.69517      400.43524      221.99117      0.5          
    109000  -897.21982     -120.39587      218.99741      0.5          
    110000  -817.27048     -279.18476      218.53085      0.5          
    111000  -761.10128     -252.83742      220.79694      0.5          
    112000  -783.19781      101.45792      216.63618      0.5          
    113000  -867.84194      120.19904      213.83075      0.5          
    114000  -565.94075     -131.93467      223.32498      0.5          
    115000  -652.00264      94.913564      219.68369      0.5          
    116000  -620.6064      -226.71794      220.13068      0.5          
    117000  -589.73        -21.601072      223.64059      0.5          
    118000  -707.32555     -37.306511      219.66295      0.5          
    119000  -720.01538     -38.154318      220.35762      0.5          
    120000  -633.20875     -84.648682      219.40712      0.5          
    121000  -701.34412     -124.01168      221.7232       0.5          
    122000  -789.40223     -114.66683      217.8635       0.5          
    123000  -659.8908      -21.0152        224.95964      0.5          
    124000  -732.55245      55.549965      217.22821      0.5          
    125000  -765.14856      72.243538      220.36368      0.5          
    126000  -830.30707     -36.701644      219.85266      0.5          
    127000  -863.77865     -102.6445       218.04426      0.5          
    128000  -782.11155     -162.85197      221.39435      0.5          
    129000  -839.64144     -323.23715      217.56143      0.5          
    130000  -649.23541      21.506042      221.75443      0.5          
    131000  -621.13063      239.85936      223.58203      0.5          
    132000  -777.92765     -419.70759      218.9801       0.5          
    133000  -784.60163     -35.016137      218.99031      0.5          
    134000  -845.76001      263.15061      215.21992      0.5          
    135000  -755.56771      86.169776      218.3622       0.5          
    136000  -599.03082     -69.889902      221.81794      0.5          
    137000  -681.58578      109.41981      220.23013      0.5          
    138000  -728.97645      55.67996       221.27273      0.5          
    139000  -653.02814      85.1237        221.90445      0.5          
    140000  -586.71719      190.65054      224.83228      0.5          
    141000  -697.80669     -26.166462      219.4434       0.5          
    142000  -754.23026      39.889045      217.89402      0.5          
    143000  -817.8836       254.79842      216.95216      0.5          
    144000  -758.65821     -75.590725      222.28591      0.5          
    145000  -859.24141     -6.7553476      217.04083      0.5          
    146000  -843.14626      113.7844       221.30896      0.5          
    147000  -807.52524     -28.519184      219.65053      0.5          
    148000  -720.09576     -85.606094      223.23914      0.5          
    149000  -617.4745       14.411403      225.41862      0.5          
    150000  -730.8826      -260.15895      219.88648      0.5          
    151000  -633.49305     -40.510303      223.8209       0.5          
    152000  -748.17196     -46.656387      219.04584      0.5          
    153000  -858.10765     -176.18424      212.8006       0.5          
    154000  -817.57402     -13.337524      217.75576      0.5          
    155000  -777.7665       165.18392      216.99442      0.5          
    156000  -794.54724      36.944952      220.92128      0.5          
    157000  -751.03014     -37.01632       219.44732      0.5          
    158000  -664.40626      66.520025      221.8871       0.5          
    159000  -772.54019     -0.19125971     218.91934      0.5          
    160000  -842.02003     -21.862875      218.5164       0.5          
    161000  -764.05203     -60.729081      216.01262      0.5          
    162000  -675.61731     -125.56507      223.17552      0.5          
    163000  -709.23066     -186.65406      219.95497      0.5          
    164000  -638.82613     -180.50462      219.98683      0.5          
    165000  -700.64371      104.65603      221.75286      0.5          
    166000  -699.5177       146.763        221.17783      0.5          
    167000  -802.09031     -119.20085      218.04039      0.5          
    168000  -745.55873      201.43684      219.75542      0.5          
    169000  -601.01988      176.22835      221.46944      0.5          
    170000  -690.93477     -121.88146      220.34182      0.5          
    171000  -715.29728     -182.14814      219.21529      0.5          
    172000  -711.04264     -193.07729      220.10512      0.5          
    173000  -750.25389     -86.997307      217.58058      0.5          
    174000  -709.94976      12.949272      221.58071      0.5          
    175000  -679.14602     -26.118666      221.71121      0.5          
    176000  -631.80826     -290.70078      220.88282      0.5          
    177000  -675.9907       300.65654      218.68063      0.5          
    178000  -770.74282      234.15699      220.03887      0.5          
    179000  -704.48559     -301.68137      223.06753      0.5          
    180000  -743.25614      53.193034      218.64784      0.5          
    181000  -721.17587      31.096956      220.88902      0.5          
    182000  -733.50463     -106.56423      219.41094      0.5          
    183000  -761.62442      91.297787      217.85413      0.5          
    184000  -767.76852      128.88864      219.86996      0.5          
    185000  -742.88926     -312.60453      220.88099      0.5          
    186000  -681.24232     -168.88262      221.72167      0.5          
    187000  -774.97466      114.40792      221.06328      0.5          
    188000  -687.1335       4.1360228      220.00585      0.5          
    189000  -782.23806     -20.527976      216.91838      0.5          
    190000  -783.91141      118.06364      217.37733      0.5          
    191000  -794.51479     -172.56095      218.95517      0.5          
    192000  -708.71861     -178.11521      222.1194       0.5          
    193000  -645.35498      237.58866      223.97467      0.5          
    194000  -598.18361      13.284478      223.46964      0.5          
    195000  -732.84555     -132.01601      217.90934      0.5          
    196000  -707.51935     -42.793412      221.72335      0.5          
    197000  -697.88521     -74.850599      218.07446      0.5          
    198000  -629.19191     -104.93788      217.40058      0.5          
    199000  -656.96143     -238.02246      221.47789      0.5          
    200000  -618.86864     -317.47459      220.07042      0.5          
    201000  -640.38668     -112.17438      223.81402      0.5          
    202000  -643.90016     -46.804757      220.45039      0.5          
    203000  -660.48121      37.513302      219.29059      0.5          
    204000  -726.70855     -41.413931      218.58271      0.5          
    205000  -605.71213     -113.37359      221.07789      0.5          
    206000  -540.83654     -196.94547      223.9739       0.5          
    207000  -706.17332     -122.15905      218.96947      0.5          
    208000  -686.07773     -40.282155      218.44616      0.5          
    209000  -783.51269     -55.128873      216.77944      0.5          
    210000  -710.94934     -139.437        219.19456      0.5          
    211000  -809.03217      36.408994      216.74028      0.5          
    212000  -694.80247      1.5591367      218.99557      0.5          
    213000  -736.07995     -153.02775      220.39728      0.5          
    214000  -861.35615     -42.55745       218.07888      0.5          
    215000  -736.18663      153.34596      219.44336      0.5          
    216000  -755.18669      103.56168      219.73279      0.5          
    217000  -767.43338      138.50506      222.22696      0.5          
    218000  -699.88356      110.81251      220.63331      0.5          
    219000  -833.20849      159.47985      217.51895      0.5          
    220000  -729.13117      62.190553      217.51277      0.5          
    221000  -670.88888     -102.97989      220.36448      0.5          
    222000  -690.1228      -247.19084      217.25176      0.5          
    223000  -618.56631     -238.87201      221.07337      0.5          
    224000  -653.7857      -288.31564      217.54199      0.5          
    225000  -617.12083      100.97734      224.75757      0.5          
    226000  -633.32025      203.24773      218.13915      0.5          
    227000  -499.76417      165.02454      220.37134      0.5          
    228000  -707.40295      126.05047      217.57675      0.5          
    229000  -600.6683       184.53164      220.62987      0.5          
    230000  -605.5466      -190.37182      220.42548      0.5          
    231000  -641.56693     -141.57984      220.62955      0.5          
    232000  -586.03503     -56.558868      221.06971      0.5          
    233000  -646.46454     -119.00233      219.59749      0.5          
    234000  -720.32715      63.225272      220.29977      0.5          
    235000  -695.95788     -44.391608      219.86271      0.5          
    236000  -726.80555      241.25235      221.07675      0.5          
    237000  -835.3531       100.4545       218.21751      0.5          
    238000  -810.26478      10.292027      218.07621      0.5          
    239000  -779.82401     -185.40039      219.14512      0.5          
    240000  -714.12996     -79.373873      222.85881      0.5          
    241000  -719.28372      79.930419      222.23472      0.5          
    242000  -853.76689      87.745937      220.15282      0.5          
    243000  -765.9754      -187.10104      220.08121      0.5          
    244000  -740.55119      116.60814      221.25827      0.5          
    245000  -668.47291     -51.374074      223.13875      0.5          
    246000  -786.03197     -304.70875      222.38998      0.5          
    247000  -683.56429      94.723994      220.93661      0.5          
    248000  -733.73525     -156.27149      219.0475       0.5          
    249000  -704.65908     -24.30859       219.6122       0.5          
    250000  -629.88067     -42.871693      218.48237      0.5          
    251000  -738.91416      74.110456      216.80061      0.5          
    252000  -779.44807      73.038269      217.7295       0.5          
    253000  -661.42345     -117.8867       219.2429       0.5          
    254000  -591.56622     -40.695241      220.68859      0.5          
    255000  -726.18906      42.564787      216.92374      0.5          
    256000  -638.1058      -34.266943      221.97754      0.5          
    257000  -537.66304      153.73349      224.39894      0.5          
    258000  -606.07474      206.78646      222.15405      0.5          
    259000  -615.27727     -359.19344      221.51348      0.5          
    260000  -640.26517     -131.37466      219.58187      0.5          
    261000  -717.49208     -29.293086      218.75556      0.5          
    262000  -647.96065     -68.432801      219.45058      0.5          
    263000  -589.23572     -6.5881568      219.69841      0.5          
    264000  -525.59317     -128.89547      222.30311      0.5          
    265000  -590.79406      16.356942      222.94201      0.5          
    266000  -724.30168      1.4502576      216.93025      0.5          
    267000  -670.2861       23.145591      219.4579       0.5          
    268000  -644.91791      55.322833      221.86671      0.5          
    269000  -654.82547      145.80033      220.68535      0.5          
    270000  -695.23216      237.49176      220.13924      0.5          
    271000  -635.55285      12.178173      226.25392      0.5          
    272000  -826.559       -165.54026      220.34077      0.5          
    273000  -879.57943     -92.511246      217.78704      0.5          
    274000  -832.66601      224.17864      220.57559      0.5          
    275000  -817.17734      139.57125      221.73884      0.5          
    276000  -824.95013     -11.816431      218.01436      0.5          
    277000  -594.73958      81.956996      224.31331      0.5          
    278000  -703.53602     -43.710187      219.73715      0.5          
    279000  -640.05809     -11.932262      221.08406      0.5          
    280000  -765.17663     -145.92165      219.13956      0.5          
    281000  -605.91066     -250.26433      219.65008      0.5          
    282000  -751.75638     -14.069422      215.38146      0.5          
    283000  -640.63929      24.374793      220.48387      0.5          
    284000  -759.21877     -257.10459      219.15971      0.5          
    285000  -647.1959       214.73017      227.14302      0.5          
    286000  -843.83002     -116.52721      216.35128      0.5          
    287000  -644.07614     -200.76039      226.12824      0.5          
    288000  -691.6566       59.655012      218.59655      0.5          
    289000  -761.30997      189.16372      221.62612      0.5          
    290000  -866.16427     -118.17784      216.34889      0.5          
    291000  -726.90676      33.556347      219.0429       0.5          
    292000  -714.64887      83.224586      218.90284      0.5          
    293000  -695.3748      -77.323988      219.02066      0.5          
    294000  -803.64695      73.769551      216.58732      0.5          
    295000  -646.7173       139.21091      219.5774       0.5          
    296000  -671.12032     -226.61912      219.01034      0.5          
    297000  -811.28773     -233.74318      216.16106      0.5          
    298000  -734.73932      10.537574      220.29008      0.5          
    299000  -741.95154      191.31373      219.9167       0.5          
    300000  -595.24073     -354.31826      225.2717       0.5          
    301000  -772.56409     -69.587662      217.3325       0.5          
    302000  -672.13816     -56.970655      220.45632      0.5          
    303000  -701.89589     -50.913272      219.45932      0.5          
    304000  -723.57641     -184.80604      220.99871      0.5          
    305000  -654.35302     -89.184931      215.66285      0.5          
    306000  -718.11243      49.823183      217.7645       0.5          
    307000  -762.05888     -216.26376      217.7499       0.5          
    308000  -800.82189     -97.806682      219.15188      0.5          
    309000  -781.55261     -70.713324      216.08134      0.5          
    310000  -748.41836     -64.113415      218.84136      0.5          
    311000  -818.28528     -115.83654      218.55909      0.5          
    312000  -764.3389       215.27105      219.30746      0.5          
    313000  -777.4776       119.02654      220.04241      0.5          
    314000  -808.62175     -95.730933      220.5391       0.5          
    315000  -648.43035     -85.336298      223.94639      0.5          
    316000  -729.2561       168.69107      222.63567      0.5          
    317000  -657.0698      -87.179115      223.59649      0.5          
    318000  -754.66495     -254.25973      220.38933      0.5          
    319000  -709.81171      169.76913      223.11768      0.5          
    320000  -728.96398      193.24823      220.20563      0.5          
    321000  -757.55523     -266.22818      218.47401      0.5          
    322000  -729.94457      17.072439      217.75399      0.5          
    323000  -752.38549      129.77964      219.03256      0.5          
    324000  -643.03598     -161.06361      221.18576      0.5          
    325000  -788.74693      154.28466      220.36243      0.5          
    326000  -813.35201     -191.66969      218.87157      0.5          
    327000  -785.41578     -63.292885      219.51117      0.5          
    328000  -721.66493      205.27246      220.29136      0.5          
    329000  -717.92576     -64.721196      218.27253      0.5          
    330000  -726.83758      85.534183      220.09696      0.5          
    331000  -594.0309      -222.64591      222.37133      0.5          
    332000  -775.78525     -37.138043      215.88728      0.5          
    333000  -721.57038      312.81623      219.26303      0.5          
    334000  -636.48315     -272.73847      218.39279      0.5          
    335000  -654.89229     -75.507106      220.58827      0.5          
    336000  -627.27449      14.478274      221.1761       0.5          
    337000  -665.83407      92.472612      219.46499      0.5          
    338000  -700.34973     -114.93423      216.52283      0.5          
    339000  -497.15479      11.022475      223.48604      0.5          
    340000  -602.267       -5.7403092      218.31271      0.5          
    341000  -635.9914       104.24056      222.49196      0.5          
    342000  -692.2475      -201.12935      217.36693      0.5          
    343000  -703.99416     -374.80394      218.94878      0.5          
    344000  -771.17664     -60.839881      216.77413      0.5          
    345000  -662.80297     -2.7521276      221.14549      0.5          
    346000  -638.01971     -10.361363      220.61681      0.5          
    347000  -731.77259      160.37989      219.74534      0.5          
    348000  -742.37209      89.381749      214.86242      0.5          
    349000  -793.86367     -276.80514      216.42933      0.5          
    350000  -744.50213     -140.76853      216.59944      0.5          
    351000  -775.34395      331.66575      218.99485      0.5          
    352000  -823.13981     -219.25711      214.28815      0.5          
    353000  -693.03385     -31.685632      221.51069      0.5          
    354000  -578.51458      11.757831      224.58026      0.5          
    355000  -595.82496      9.3900737      224.31036      0.5          
    356000  -607.5097       236.51736      222.81603      0.5          
    357000  -627.34208     -34.25085       221.04607      0.5          
    358000  -720.84776      5.9848189      220.23974      0.5          
    359000  -689.18562      22.997622      220.24156      0.5          
    360000  -642.24357     -348.02009      219.78233      0.5          
    361000  -670.8921      -70.228092      219.20323      0.5          
    362000  -638.6047      -72.663114      221.39195      0.5          
    363000  -617.81301     -30.91663       223.17859      0.5          
    364000  -611.81125      21.625122      221.90744      0.5          
    365000  -639.91141     -4.8694397      220.47959      0.5          
    366000  -639.62872     -16.680554      220.81462      0.5          
    367000  -698.58048      27.196193      217.18155      0.5          
    368000  -701.40234     -103.56145      217.87045      0.5          
    369000  -623.49494     -36.217368      219.82826      0.5          
    370000  -629.54789     -496.9392       219.83543      0.5          
    371000  -566.78745     -144.98189      223.56992      0.5          
    372000  -757.3326       149.70662      218.87321      0.5          
    373000  -700.93945     -218.48641      219.99198      0.5          
    374000  -757.58606     -52.639134      218.99808      0.5          
    375000  -659.01568     -23.297997      222.69306      0.5          
    376000  -635.67452      4.0928463      222.5285       0.5          
    377000  -658.84813      50.6868        221.38237      0.5          
    378000  -681.62253      22.7773        221.0462       0.5          
    379000  -631.77723      14.855073      219.20369      0.5          
    380000  -669.33701      158.45095      219.55153      0.5          
    381000  -602.5346      -0.72085677     220.71799      0.5          
    382000  -753.83482     -2.9629504      218.78427      0.5          
    383000  -717.94241     -84.584828      219.4864       0.5          
    384000  -678.50084      50.947129      220.96095      0.5          
    385000  -750.73675     -118.95211      216.83937      0.5          
    386000  -682.12025     -18.937734      223.75193      0.5          
    387000  -651.98301      52.801196      220.13096      0.5          
    388000  -776.92765     -178.26183      217.60194      0.5          
    389000  -813.28278     -146.28503      218.827        0.5          
    390000  -737.12216      250.49065      219.0832       0.5          
    391000  -633.98955      111.77545      220.03156      0.5          
    392000  -735.76779     -75.025567      217.54838      0.5          
    393000  -597.10883      17.029251      221.28426      0.5          
    394000  -731.93979      76.903456      218.90723      0.5          
    395000  -543.87627     -188.96679      223.46092      0.5          
    396000  -704.28395     -265.97413      218.63261      0.5          
    397000  -582.31614      340.71646      223.09945      0.5          
    398000  -728.36207      93.983868      217.15718      0.5          
    399000  -690.24417     -158.23446      216.55185      0.5          
    400000  -473.4469      -54.191824      224.35276      0.5          
    401000  -604.84863      39.477122      221.2621       0.5          
    402000  -690.41682     -54.457023      217.48592      0.5          
    403000  -672.61425     -267.3866       220.05264      0.5          
    404000  -703.60866     -72.650056      220.76406      0.5          
    405000  -721.72643     -55.231643      215.69136      0.5          
    406000  -740.00702      175.92508      217.58585      0.5          
    407000  -645.4531      -87.402132      221.19625      0.5          
    408000  -649.90744     -24.772008      222.50797      0.5          
    409000  -709.89573      11.133731      215.80269      0.5          
    410000  -732.79485      127.63841      220.00575      0.5          
    411000  -775.60679      262.19801      216.45423      0.5          
    412000  -663.22878     -2.4025254      221.55252      0.5          
    413000  -681.52475     -436.44737      221.43399      0.5          
    414000  -709.78521     -4.766531       222.45705      0.5          
    415000  -824.06795      66.147803      216.41396      0.5          
    416000  -714.88733     -42.779206      218.66547      0.5          
    417000  -700.87149      82.113743      219.62341      0.5          
    418000  -671.44242     -143.85292      218.71103      0.5          
    419000  -712.28395     -377.8795       217.23377      0.5          
    420000  -685.16843      232.52165      220.43334      0.5          
    421000  -739.33361      47.885553      217.13456      0.5          
    422000  -700.81323     -237.25086      220.69699      0.5          
    423000  -606.4333       160.40844      222.16673      0.5          
    424000  -579.30696      116.34227      220.42552      0.5          
    425000  -622.49958      7.6323748      221.91739      0.5          
    426000  -641.23477      257.51164      219.67005      0.5          
    427000  -617.83991     -22.29481       220.60146      0.5          
    428000  -743.12806     -238.19392      219.05484      0.5          
    429000  -580.26132      12.957262      221.35306      0.5          
    430000  -564.78897      217.02232      221.9501       0.5          
    431000  -611.96833     -28.429734      220.86094      0.5          
    432000  -730.11244     -285.44226      217.90854      0.5          
    433000  -564.94046      252.62256      220.48403      0.5          
    434000  -675.16131      128.54409      215.4492       0.5          
    435000  -649.84939     -28.084402      219.03905      0.5          
    436000  -574.2818      -15.86551       224.02407      0.5          
    437000  -618.49713      206.35082      218.07332      0.5          
    438000  -629.23879     -152.40336      218.39291      0.5          
    439000  -648.43714      89.067365      220.47054      0.5          
    440000  -737.56792      43.562963      217.40913      0.5          
    441000  -632.47918     -229.72965      219.12473      0.5          
    442000  -534.1428      -266.91794      222.33629      0.5          
    443000  -598.2527       173.61698      221.94785      0.5          
    444000  -545.59652      146.57805      223.21117      0.5          
    445000  -707.63345     -110.79935      215.57339      0.5          
    446000  -691.63186     -301.35271      217.11921      0.5          
    447000  -563.52601      60.83406       221.04805      0.5          
    448000  -718.28224      87.006896      217.10228      0.5          
    449000  -665.56728      0.089656206    218.22373      0.5          
    450000  -732.02876     -419.29733      218.53578      0.5          
    451000  -815.31354      19.532359      217.9961       0.5          
    452000  -624.52294      138.98418      223.70521      0.5          
    453000  -658.9757      -16.415487      220.04502      0.5          
    454000  -725.60311     -153.01663      219.95837      0.5          
    455000  -700.62419      281.82171      218.18119      0.5          
    456000  -700.47959      399.1776       219.74087      0.5          
    457000  -652.52723     -96.481956      221.22669      0.5          
    458000  -646.51395     -116.97753      220.37933      0.5          
    459000  -722.42059      20.134379      218.3301       0.5          
    460000  -626.80333     -59.325897      220.80209      0.5          
    461000  -648.4573       124.04797      219.83885      0.5          
    462000  -622.35504      98.830819      219.98176      0.5          
    463000  -449.12188     -64.25871       223.51508      0.5          
    464000  -594.1025      -123.40684      220.56078      0.5          
    465000  -593.66948      76.683145      218.72211      0.5          
    466000  -604.09022      3.5923675      219.89988      0.5          
    467000  -598.21344      117.98005      220.26867      0.5          
    468000  -668.67414     -29.132014      219.9644       0.5          
    469000  -671.64311     -130.29243      219.06596      0.5          
    470000  -592.95883      238.96722      220.18796      0.5          
    471000  -594.10441      28.233408      220.76661      0.5          
    472000  -723.20129      129.10195      218.89579      0.5          
    473000  -833.53702      120.5458       217.39744      0.5          
    474000  -651.56555      35.544205      223.45209      0.5          
    475000  -637.42658      42.993154      220.64671      0.5          
    476000  -631.90394      163.04744      220.78743      0.5          
    477000  -657.90413     -112.0179       220.08912      0.5          
    478000  -618.22124     -93.00285       222.85879      0.5          
    479000  -678.16495      92.219204      218.45728      0.5          
    480000  -674.78094      13.202033      221.3095       0.5          
    481000  -705.81499      43.344807      218.16462      0.5          
    482000  -589.23023     -161.33519      220.11515      0.5          
    483000  -694.26442     -29.232778      220.83479      0.5          
    484000  -697.30475      65.88464       218.86893      0.5          
    485000  -711.14654      336.87624      218.94989      0.5          
    486000  -661.83174      149.44114      221.30253      0.5          
    487000  -679.90951     -84.333285      221.54972      0.5          
    488000  -709.12507     -5.0544027      223.39341      0.5          
    489000  -798.19964      96.61701       218.70291      0.5          
    490000  -889.69473     -235.92309      213.69435      0.5          
    491000  -781.34671      153.6775       216.792        0.5          
    492000  -750.58857      53.172518      220.27146      0.5          
    493000  -699.4877      -91.375932      220.52428      0.5          
    494000  -705.72861     -65.400171      222.7046       0.5          
    495000  -840.69689     -327.16668      216.04101      0.5          
    496000  -756.03102      108.23402      218.25921      0.5          
    497000  -670.56668      202.44822      221.51499      0.5          
    498000  -622.43066     -28.972893      221.73288      0.5          
    499000  -560.24666      60.740725      223.83737      0.5          
    500000  -614.32813      25.269885      220.91352      0.5          
    501000  -694.33997     -185.31181      219.90378      0.5          
    502000  -713.74999      111.03323      218.46769      0.5          
    503000  -556.79827      249.8606       222.45127      0.5          
    504000  -720.2378      -192.6306       217.32244      0.5          
    505000  -619.06018     -74.892268      220.82584      0.5          
    506000  -530.3253       307.7099       221.51097      0.5          
    507000  -616.48306     -37.411437      219.2008       0.5          
    508000  -651.85701     -141.05287      221.19177      0.5          
    509000  -717.92599     -102.50252      219.57871      0.5          
    510000  -835.1882       93.531172      214.94609      0.5          
    511000  -779.61453      220.17774      218.81237      0.5          
    512000  -678.32438     -60.663565      220.95568      0.5          
    513000  -746.54808      2.2985254      221.47427      0.5          
    514000  -868.68546     -47.906258      214.92967      0.5          
    515000  -808.97009      62.463052      219.30677      0.5          
    516000  -806.81427     -79.91013       219.59223      0.5          
    517000  -714.50176      59.544061      219.18911      0.5          
    518000  -781.07477      39.648583      215.68331      0.5          
    519000  -697.70626     -129.76467      219.79611      0.5          
    520000  -738.31619     -294.74138      214.80947      0.5          
    521000  -570.17931     -141.46176      221.71112      0.5          
    522000  -659.23662      54.719628      221.79895      0.5          
    523000  -634.3858      -54.284415      222.77127      0.5          
    524000  -786.76749      44.21896       217.42107      0.5          
    525000  -658.48915      42.358146      221.57924      0.5          
    526000  -656.30889     -120.8109       218.00643      0.5          
    527000  -595.64013     -194.22388      221.97536      0.5          
    528000  -691.9663      -52.511125      218.46823      0.5          
    529000  -670.88006     -106.93283      218.6512       0.5          
    530000  -675.93667      55.553436      219.77841      0.5          
    531000  -681.3568       16.514791      222.42704      0.5          
    532000  -648.42118     -401.90142      221.48936      0.5          
    533000  -610.75654     -295.02625      219.4901       0.5          
    534000  -657.64666      107.30033      221.21502      0.5          
    535000  -674.36685     -140.86313      220.97708      0.5          
    536000  -699.8599      -53.852268      218.75019      0.5          
    537000  -624.95977      103.30718      220.27097      0.5          
    538000  -547.67273      100.5674       222.91345      0.5          
    539000  -627.39193     -143.26163      220.02011      0.5          
    540000  -591.62963     -326.5573       220.08799      0.5          
    541000  -597.81952      117.82141      221.91864      0.5          
    542000  -628.39905      142.11306      218.31079      0.5          
    543000  -540.50255     -227.32455      222.41168      0.5          
    544000  -620.219        30.408577      220.03016      0.5          
    545000  -455.23725      62.175803      222.73339      0.5          
    546000  -509.24037     -148.82765      223.25379      0.5          
    547000  -598.18201     -167.63723      220.82261      0.5          
    548000  -645.85668      58.810931      219.23862      0.5          
    549000  -598.38875      275.0373       220.70956      0.5          
    550000  -620.25564     -455.56594      220.54403      0.5          
    551000  -676.7591      -105.96045      218.61108      0.5          
    552000  -610.03002      66.625065      222.12248      0.5          
    553000  -638.19978     -121.73544      225.83109      0.5          
    554000  -672.4746       143.20125      220.14269      0.5          
    555000  -762.73235      4.348656       219.78059      0.5          
    556000  -890.31192     -181.47534      220.00452      0.5          
    557000  -891.87024     -84.676635      217.5488       0.5          
    558000  -824.04801      88.047848      218.82142      0.5          
    559000  -875.92418      141.86247      222.25318      0.5          
    560000  -943.0375      -372.0993       219.47385      0.5          
    561000  -864.23194     -71.517378      222.59197      0.5          
    562000  -913.496        147.23055      220.12234      0.5          
    563000  -919.08326      61.086017      219.3662       0.5          
    564000  -949.9102       257.07197      221.15771      0.5          
    565000  -939.82007      153.28193      224.19914      0.5          
    566000  -934.42438      24.617988      225.57414      0.5          
    567000  -1123.6025     -66.049964      215.5121       0.5          
    568000  -1028.7257      221.49424      219.89149      0.5          
    569000  -1056.8195      430.49332      220.56898      0.5          
    570000  -1057.7258     -29.474011      222.76853      0.5          
    571000  -1161.9155     -215.36455      221.45754      0.5          
    572000  -1186.6725      70.87921       218.40586      0.5          
    573000  -1115.8816      150.64339      220.91909      0.5          
    574000  -1116.5016      0.38217013     221.02569      0.5          
    575000  -1056.8207      21.63936       220.21351      0.5          
    576000  -1027.6745     -157.04011      219.0206       0.5          
    577000  -1045.6912     -11.373563      217.91476      0.5          
    578000  -943.76464      115.55003      220.33968      0.5          
    579000  -988.70912      6.0478136      219.40473      0.5          
    580000  -1013.7411     -168.09126      217.52887      0.5          
    581000  -901.81462      9.2666996      219.47649      0.5          
    582000  -889.58758     -12.063979      219.03121      0.5          
    583000  -843.64221     -238.52167      216.77891      0.5          
    584000  -846.40814     -319.20187      218.5318       0.5          
    585000  -671.81237     -64.167457      222.23425      0.5          
    586000  -737.14046      94.03995       215.63932      0.5          
    587000  -681.63712     -91.463432      220.05676      0.5          
    588000  -693.19267     -501.17391      219.39173      0.5          
    589000  -578.52853      141.96719      222.96022      0.5          
    590000  -741.38843      68.139604      217.49389      0.5          
    591000  -662.32661      45.104754      220.92668      0.5          
    592000  -621.16031      129.54089      220.29673      0.5          
    593000  -596.02869     -75.891024      221.4954       0.5          
    594000  -647.22862     -111.5574       220.05539      0.5          
    595000  -547.93704      43.837476      221.45933      0.5          
    596000  -631.75205     -125.74798      220.69838      0.5          
    597000  -755.60962     -226.0073       221.30795      0.5          
    598000  -811.13774     -128.11021      217.86395      0.5          
    599000  -629.35144     -141.80368      223.14581      0.5          
    600000  -731.56431      150.28045      222.04621      0.5          
    601000  -816.41385      284.33228      221.28369      0.5          
    602000  -762.64007     -6.3263024      221.10927      0.5          
    603000  -975.43503     -297.27862      218.87097      0.5          
    604000  -962.09502     -80.444262      220.25614      0.5          
    605000  -869.07475      0.97806175     221.21765      0.5          
    606000  -874.38926      100.8808       222.29642      0.5          
    607000  -981.81064      188.20087      218.89196      0.5          
    608000  -1071.2582      54.85023       217.58348      0.5          
    609000  -1071.9315      9.9265964      219.10158      0.5          
    610000  -1067.5692     -63.034692      219.0632       0.5          
    611000  -1114.2146      152.78616      217.52343      0.5          
    612000  -1010.2029      336.49109      221.69187      0.5          
    613000  -1087.0462     -147.46975      218.49357      0.5          
    614000  -994.18882      73.059794      221.30661      0.5          
    615000  -970.92267      36.80527       222.69119      0.5          
    616000  -987.77497      106.36481      219.61125      0.5          
    617000  -1023.2942     -99.551488      219.5349       0.5          
    618000  -954.85913     -137.09262      217.01632      0.5          
    619000  -981.52693      145.59961      216.12534      0.5          
    620000  -924.76827     -174.7482       222.33586      0.5          
    621000  -883.35153      40.237634      220.69906      0.5          
    622000  -830.43856      243.7955       220.16026      0.5          
    623000  -907.37925     -500.29939      217.31956      0.5          
    624000  -770.82538     -239.84485      222.63356      0.5          
    625000  -857.71303     -60.402456      220.72203      0.5          
    626000  -715.06599      155.27165      219.86856      0.5          
    627000  -769.89262     -22.526785      220.39046      0.5          
    628000  -709.49877     -11.388172      221.70096      0.5          
    629000  -765.23161      85.915622      220.69953      0.5          
    630000  -661.71832     -184.24751      221.87544      0.5          
    631000  -662.21216     -294.37745      219.29777      0.5          
    632000  -770.46301     -214.11482      218.95233      0.5          
    633000  -735.80324      77.014805      220.41995      0.5          
    634000  -678.93127      144.3181       220.03062      0.5          
    635000  -699.89346     -241.56937      218.96563      0.5          
    636000  -871.65805      170.09697      217.17631      0.5          
    637000  -690.6397      -22.786357      224.8789       0.5          
    638000  -747.78619     -159.44863      220.27062      0.5          
    639000  -778.01062     -178.73066      219.11198      0.5          
    640000  -801.59043      77.120591      219.07977      0.5          
    641000  -656.82485     -186.87804      225.16527      0.5          
    642000  -620.51035     -130.10512      223.13215      0.5          
    643000  -707.73313      111.59572      223.63725      0.5          
    644000  -686.54099     -46.48392       219.67362      0.5          
    645000  -648.8928      -146.47184      221.29921      0.5          
    646000  -765.22898      182.79069      223.10047      0.5          
    647000  -764.24592      32.248777      220.37127      0.5          
    648000  -958.26379      134.41904      219.19843      0.5          
    649000  -797.78766      165.75931      220.63789      0.5          
    650000  -853.37544     -61.403512      219.72804      0.5          
    651000  -915.82603     -53.352446      220.64884      0.5          
    652000  -817.47716     -188.46378      219.8974       0.5          
    653000  -980.26131     -49.86182       215.47739      0.5          
    654000  -924.56128     -82.07213       221.15233      0.5          
    655000  -939.8273      -192.51849      217.83397      0.5          
    656000  -814.66158      188.91448      222.18629      0.5          
    657000  -934.34921      225.48946      218.1801       0.5          
    658000  -899.27975      129.62835      218.09052      0.5          
    659000  -943.39388     -64.868738      219.48998      0.5          
    660000  -903.32473     -69.91506       219.44781      0.5          
    661000  -769.28527      7.7025883      223.66652      0.5          
    662000  -891.67874      258.99399      219.50859      0.5          
    663000  -897.83296     -83.979682      221.35718      0.5          
    664000  -943.33285      30.999166      221.16061      0.5          
    665000  -833.85382      218.51235      218.71106      0.5          
    666000  -886.8594      -163.01545      219.44367      0.5          
    667000  -818.14055     -289.93373      223.9027       0.5          
    668000  -897.18035      231.21889      221.24157      0.5          
    669000  -939.94298      166.40741      216.70572      0.5          
    670000  -860.72355      119.01041      219.23298      0.5          
    671000  -838.60351     -159.3774       218.72468      0.5          
    672000  -862.28484      64.486458      220.20365      0.5          
    673000  -858.68223     -16.994233      218.77235      0.5          
    674000  -777.0839      -168.1758       222.37111      0.5          
    675000  -867.80918     -245.43277      217.01535      0.5          
    676000  -900.31455      199.3342       217.43499      0.5          
    677000  -864.57058      369.58389      215.15077      0.5          
    678000  -805.07311      65.966792      221.71953      0.5          
    679000  -871.26866     -278.25078      220.81625      0.5          
    680000  -799.86065      155.79487      220.24031      0.5          
    681000  -759.15062      208.27288      218.71266      0.5          
    682000  -780.89674     -21.501443      220.45972      0.5          
    683000  -853.15257     -1.1419182      219.73734      0.5          
    684000  -936.34299     -196.82719      217.56815      0.5          
    685000  -806.66438     -130.07109      222.48059      0.5          
    686000  -907.36542     -44.293098      216.41484      0.5          
    687000  -831.04729      282.54928      218.09941      0.5          
    688000  -831.03781     -196.70522      215.5251       0.5          
    689000  -715.95547     -139.49633      224.30245      0.5          
    690000  -778.44497      182.09713      222.8166       0.5          
    691000  -846.40391      232.54777      221.64328      0.5          
    692000  -974.04237     -293.94537      216.62836      0.5          
    693000  -824.35361      176.64291      222.64563      0.5          
    694000  -825.37785      132.70956      220.57081      0.5          
    695000  -860.01363     -305.8366       219.42279      0.5          
    696000  -736.04302     -66.680824      226.5165       0.5          
    697000  -785.87541      139.65377      221.7857       0.5          
    698000  -847.26625     -193.41193      218.85664      0.5          
    699000  -831.02599     -43.424032      219.99502      0.5          
    700000  -899.23559      83.797757      220.24478      0.5          
    701000  -797.96145     -181.80802      221.04822      0.5          
    702000  -829.32168      33.447057      221.48021      0.5          
    703000  -862.1549       163.3521       220.61872      0.5          
    704000  -824.88289     -191.43631      221.34195      0.5          
    705000  -973.61618      50.477759      217.28607      0.5          
    706000  -896.47741      79.701394      222.1841       0.5          
    707000  -941.79681     -278.06869      219.30265      0.5          
    708000  -857.07798      106.27364      220.50155      0.5          
    709000  -836.25343      201.50239      219.86321      0.5          
    710000  -771.27369      130.03422      219.9302       0.5          
    711000  -780.16231     -157.84681      222.68404      0.5          
    712000  -789.80494     -38.516336      223.21238      0.5          
    713000  -872.62296     -82.594626      216.41387      0.5          
    714000  -802.51177     -22.844225      220.50217      0.5          
    715000  -842.98732     -13.368453      218.84117      0.5          
    716000  -901.15544     -53.065502      218.02238      0.5          
    717000  -844.3553       23.738992      222.0093       0.5          
    718000  -853.39292      31.049363      219.04394      0.5          
    719000  -916.36414      122.85783      216.19282      0.5          
    720000  -888.81226     -236.63669      217.6333       0.5          
    721000  -793.72376     -157.51146      220.1229       0.5          
    722000  -756.00727     -5.3753603      221.50415      0.5          
    723000  -830.5289      -14.14421       222.26583      0.5          
    724000  -784.74495     -154.53691      221.61898      0.5          
    725000  -866.39497      66.441519      220.45535      0.5          
    726000  -837.79958      138.91898      218.07929      0.5          
    727000  -873.19322     -115.42158      215.09958      0.5          
    728000  -896.76886      3.162269       217.95211      0.5          
    729000  -673.63759     -90.298645      222.26871      0.5          
    730000  -790.20093     -245.26818      222.01052      0.5          
    731000  -805.72612      72.917235      222.43         0.5          
    732000  -983.44182      104.96291      216.63234      0.5          
    733000  -827.87794     -54.642574      220.4055       0.5          
    734000  -776.86365     -176.88244      221.94273      0.5          
    735000  -812.40541      257.34154      222.86509      0.5          
    736000  -814.62672      48.763561      223.41366      0.5          
    737000  -821.58768     -109.75344      223.04235      0.5          
    738000  -883.9412       116.0615       216.72674      0.5          
    739000  -829.74833     -35.549977      217.74283      0.5          
    740000  -781.47287      109.49487      223.17862      0.5          
    741000  -869.50298      301.11592      217.6383       0.5          
    742000  -690.07096      27.33674       223.44286      0.5          
    743000  -824.42747     -38.681498      220.07927      0.5          
    744000  -847.39911     -110.64629      218.11909      0.5          
    745000  -789.48081     -101.70107      222.49407      0.5          
    746000  -594.09137      196.47379      224.33523      0.5          
    747000  -737.17951      132.5312       220.84464      0.5          
    748000  -772.7329       73.069653      217.6919       0.5          
    749000  -781.43789     -35.844826      219.61611      0.5          
    750000  -729.6673      -21.036753      221.47067      0.5          
    751000  -754.70132     -103.76156      220.54442      0.5          
    752000  -623.78782     -49.167198      224.96208      0.5          
    753000  -813.72029     -169.93117      218.86358      0.5          
    754000  -868.70306     -29.142168      217.61976      0.5          
    755000  -673.02304      69.455923      222.44068      0.5          
    756000  -868.21364      113.15666      215.70629      0.5          
    757000  -842.6049       143.571        218.13304      0.5          
    758000  -820.92271     -60.059639      218.74228      0.5          
    759000  -643.47682      125.20265      226.5074       0.5          
    760000  -731.98732      53.433213      221.22592      0.5          
    761000  -811.19195     -30.993856      219.46253      0.5          
    762000  -655.30284     -76.246657      225.27743      0.5          
    763000  -721.59709      25.16404       221.3694       0.5          
    764000  -723.26352     -85.21061       222.8838       0.5          
    765000  -858.27244     -178.26949      219.91324      0.5          
    766000  -823.69001      66.742106      218.11037      0.5          
    767000  -834.78967     -78.100809      220.86812      0.5          
    768000  -811.6775       184.41696      217.38476      0.5          
    769000  -788.83184      83.459961      223.7193       0.5          
    770000  -896.74233     -278.85821      217.38605      0.5          
    771000  -827.09121     -213.57695      222.15184      0.5          
    772000  -906.05311     -255.41925      218.97935      0.5          
    773000  -770.21678     -46.498305      222.10249      0.5          
    774000  -957.07862      2.2968187      218.28137      0.5          
    775000  -869.20412      118.47263      221.22728      0.5          
    776000  -875.47713      143.44232      220.80432      0.5          
    777000  -889.93771     -170.70503      218.40341      0.5          
    778000  -834.04233     -70.499275      219.90867      0.5          
    779000  -811.59471      161.85601      221.15072      0.5          
    780000  -860.33995     -14.773363      220.55746      0.5          
    781000  -882.42153      15.649088      218.75489      0.5          
    782000  -922.98835      26.011062      218.56338      0.5          
    783000  -806.46396      279.93384      221.90329      0.5          
    784000  -915.8228       16.6239        216.18544      0.5          
    785000  -872.7204      -374.64646      217.96102      0.5          
    786000  -779.28601      170.31894      221.28059      0.5          
    787000  -871.70293      25.989568      217.20072      0.5          
    788000  -810.76313      87.292584      219.9391       0.5          
    789000  -763.32547      236.56391      224.19083      0.5          
    790000  -866.24929     -373.64215      219.25728      0.5          
    791000  -765.98588      0.51329933     219.34634      0.5          
    792000  -710.14852     -16.405243      220.7672       0.5          
    793000  -630.76084     -272.70348      223.70238      0.5          
    794000  -673.53222     -71.807364      220.40479      0.5          
    795000  -749.03638      115.08309      220.44817      0.5          
    796000  -750.85379      78.70792       222.01955      0.5          
    797000  -835.41977      290.71188      220.16378      0.5          
    798000  -785.72944     -67.46837       220.57507      0.5          
    799000  -848.6621      -136.85323      219.28439      0.5          
    800000  -758.1488       151.32007      219.64531      0.5          
    801000  -783.80529      170.02689      221.71622      0.5          
    802000  -747.29317     -124.86085      221.30673      0.5          
    803000  -918.76395      150.95666      219.23986      0.5          
    804000  -911.15         17.650414      216.99674      0.5          
    805000  -923.59907     -101.54339      218.2676       0.5          
    806000  -932.63627      50.663836      218.82121      0.5          
    807000  -885.69917     -119.84859      215.52139      0.5          
    808000  -828.15655      40.049965      220.8227       0.5          
    809000  -840.07675      56.713329      220.98127      0.5          
    810000  -1053.1921     -17.44615       215.91464      0.5          
    811000  -861.27114      177.7591       220.86484      0.5          
    812000  -865.91023      11.657777      218.12957      0.5          
    813000  -878.24437      171.64792      222.50522      0.5          
    814000  -863.42899      16.259728      219.06953      0.5          
    815000  -837.28269     -86.98993       221.44869      0.5          
    816000  -853.59359      273.23219      217.33956      0.5          
    817000  -910.3538      -149.68994      218.27862      0.5          
    818000  -708.3723      -46.37188       225.77876      0.5          
    819000  -867.22367     -90.427142      215.94198      0.5          
    820000  -830.36099      23.034012      218.28143      0.5          
    821000  -847.17889     -33.236466      218.21826      0.5          
    822000  -780.69975     -71.683102      222.72303      0.5          
    823000  -839.92703     -218.21639      219.28593      0.5          
    824000  -797.18342     -126.4105       221.53294      0.5          
    825000  -815.34208      180.19343      218.97489      0.5          
    826000  -583.2886       194.30252      224.86433      0.5          
    827000  -763.93699     -186.26646      220.93654      0.5          
    828000  -752.74613     -138.47487      220.73768      0.5          
    829000  -657.49074      141.10546      223.31658      0.5          
    830000  -767.57211     -66.766774      218.21437      0.5          
    831000  -740.75977     -100.38548      219.98807      0.5          
    832000  -795.25887      112.40501      220.8155       0.5          
    833000  -785.28782     -137.12887      222.26825      0.5          
    834000  -761.51413     -40.21955       223.27489      0.5          
    835000  -840.87555     -152.67562      218.58391      0.5          
    836000  -833.50296     -241.94461      217.22527      0.5          
    837000  -920.86208      33.799199      216.3022       0.5          
    838000  -759.88419      185.21064      223.41467      0.5          
    839000  -898.30679     -185.5655       217.9796       0.5          
    840000  -853.34301     -167.90677      221.3018       0.5          
    841000  -728.14458      97.291208      223.04695      0.5          
    842000  -844.87969     -31.338294      220.27139      0.5          
    843000  -827.68402     -16.551318      224.41095      0.5          
    844000  -798.03027      66.817617      223.39629      0.5          
    845000  -808.89808     -118.40711      220.37025      0.5          
    846000  -857.473       -31.768862      220.81571      0.5          
    847000  -930.45099      56.315999      214.22181      0.5          
    848000  -863.43786     -24.075821      220.72774      0.5          
    849000  -826.76321      26.694494      219.88717      0.5          
    850000  -877.42446      232.52587      220.35224      0.5          
    851000  -744.70369      194.37072      223.1958       0.5          
    852000  -716.49363     -46.750655      223.87825      0.5          
    853000  -791.47125      28.137481      220.31891      0.5          
    854000  -983.62336      152.85642      216.66072      0.5          
    855000  -869.76743      196.56669      220.63948      0.5          
    856000  -939.76852     -175.61232      218.31663      0.5          
    857000  -836.78832     -224.25041      220.66632      0.5          
    858000  -794.13404      46.869502      223.69985      0.5          
    859000  -1007.2474     -91.026024      217.08378      0.5          
    860000  -999.36219      128.97538      217.35306      0.5          
    861000  -797.43884     -198.71502      220.56935      0.5          
    862000  -849.59459     -223.72584      218.29893      0.5          
    863000  -806.58522      62.232498      217.01311      0.5          
    864000  -794.13085      28.230267      219.76283      0.5          
    865000  -776.30652     -180.75066      223.73203      0.5          
    866000  -767.72287      176.94745      220.39946      0.5          
    867000  -694.37003     -216.96235      222.27036      0.5          
    868000  -756.48321      9.5503195      221.0091       0.5          
    869000  -693.87508      270.72586      221.94396      0.5          
    870000  -673.63907     -370.71925      224.06198      0.5          
    871000  -714.21534     -375.87403      223.82081      0.5          
    872000  -724.34308      180.17799      223.22427      0.5          
    873000  -852.28197     -188.57821      217.55194      0.5          
    874000  -768.85396     -191.26612      221.83469      0.5          
    875000  -813.88409      116.46051      219.22803      0.5          
    876000  -816.84873      80.158603      219.41941      0.5          
    877000  -785.16793      0.87770845     221.80596      0.5          
    878000  -912.64339      111.31295      218.11741      0.5          
    879000  -869.71337      22.285578      222.58648      0.5          
    880000  -920.48452     -128.46521      218.72509      0.5          
    881000  -872.83225      45.394042      217.83104      0.5          
    882000  -826.21039      127.53802      220.66761      0.5          
    883000  -820.75386     -88.543278      219.98858      0.5          
    884000  -829.65467     -107.36636      219.47061      0.5          
    885000  -856.51513      120.70388      222.91339      0.5          
    886000  -838.36869      199.71209      222.4232       0.5          
    887000  -879.60314     -390.3149       221.8195       0.5          
    888000  -884.31274      128.60499      223.07644      0.5          
    889000  -881.32367      269.36525      220.46972      0.5          
    890000  -882.82723     -72.340923      218.28219      0.5          
    891000  -767.45824     -49.661147      221.8109       0.5          
    892000  -887.70656      25.935577      217.64055      0.5          
    893000  -805.66498     -86.116501      220.71543      0.5          
    894000  -878.03678     -41.839581      218.25218      0.5          
    895000  -920.8773      -29.031581      218.69643      0.5          
    896000  -901.3118      -200.30384      219.70768      0.5          
    897000  -648.95062      13.167817      223.44576      0.5          
    898000  -812.33536      69.190585      220.45315      0.5          
    899000  -794.62753      157.45616      221.62277      0.5          
    900000  -822.11439      26.750153      223.18744      0.5          
    901000  -859.21368     -76.968174      219.19545      0.5          
    902000  -755.20254      68.484687      221.11686      0.5          
    903000  -832.78823      371.76351      220.40769      0.5          
    904000  -848.40922      71.682214      218.56974      0.5          
    905000  -789.16599     -113.88075      221.1735       0.5          
    906000  -800.1071       41.200842      220.88883      0.5          
    907000  -779.52956     -23.840392      220.62773      0.5          
    908000  -858.41147      31.413429      217.35951      0.5          
    909000  -840.07355     -242.90416      219.59636      0.5          
    910000  -715.72505     -116.26641      221.98882      0.5          
    911000  -742.63839      272.31457      220.63464      0.5          
    912000  -840.35222      106.92285      218.0834       0.5          
    913000  -755.14731      74.952361      222.30732      0.5          
    914000  -799.57121     -203.75095      219.58083      0.5          
    915000  -816.49569     -112.03129      221.9758       0.5          
    916000  -795.42952      206.88696      220.43275      0.5          
    917000  -857.21596     -35.17219       218.30374      0.5          
    918000  -941.1186      -112.30356      216.73018      0.5          
    919000  -871.3198      -229.88325      219.64815      0.5          
    920000  -1011.4153     -168.29862      218.84629      0.5          
    921000  -856.10255      347.22334      221.55701      0.5          
    922000  -788.96587      15.274635      222.51298      0.5          
    923000  -913.23087     -173.35573      218.1899       0.5          
    924000  -876.98867     -99.382727      219.88847      0.5          
    925000  -862.67861     -71.297789      216.94477      0.5          
    926000  -794.82509     -8.3496664      220.85718      0.5          
    927000  -852.62698      161.30391      218.36541      0.5          
    928000  -728.97952      62.203817      224.27172      0.5          
    929000  -812.06824     -86.312976      220.90052      0.5          
    930000  -953.00827     -178.99652      215.22996      0.5          
    931000  -877.57756     -24.619244      221.0044       0.5          
    932000  -780.18334      149.51748      220.83238      0.5          
    933000  -821.45467     -0.34423797     220.15407      0.5          
    934000  -883.03798     -170.26308      218.21126      0.5          
    935000  -929.42367     -331.09078      214.5751       0.5          
    936000  -837.76725      133.01684      221.39559      0.5          
    937000  -860.11063     -21.017177      217.91164      0.5          
    938000  -831.33705      16.551166      219.27724      0.5          
    939000  -881.26177     -12.408006      220.3563       0.5          
    940000  -835.40983      0.17539797     220.65302      0.5          
    941000  -894.51025      42.737698      216.74367      0.5          
    942000  -897.45814      90.316056      219.30997      0.5          
    943000  -882.00777     -90.131839      219.29506      0.5          
    944000  -826.92373     -59.065244      219.91736      0.5          
    945000  -796.83696     -22.981032      219.63413      0.5          
    946000  -763.43435     -57.1375        221.15536      0.5          
    947000  -833.9405      -318.87423      220.03186      0.5          
    948000  -797.98854     -180.00426      218.9489       0.5          
    949000  -789.47827      351.60525      220.53196      0.5          
    950000  -839.24688     -71.551669      217.90094      0.5          
    951000  -741.24837     -357.12694      222.79101      0.5          
    952000  -709.01109      5.6301534      222.46034      0.5          
    953000  -762.01105      286.62226      219.93573      0.5          
    954000  -873.53149      103.11438      217.74209      0.5          
    955000  -839.84378     -119.79155      222.75419      0.5          
    956000  -852.71619     -180.88911      220.13288      0.5          
    957000  -822.04067      7.4879903      220.87144      0.5          
    958000  -824.49754      131.26676      220.96362      0.5          
    959000  -776.37254      37.110444      222.07238      0.5          
    960000  -762.00707     -79.201986      220.15829      0.5          
    961000  -734.3734      -197.02658      223.31322      0.5          
    962000  -781.87201      15.246506      220.66092      0.5          
    963000  -783.42368      61.536629      218.99832      0.5          
    964000  -702.24478     -65.514372      222.62217      0.5          
    965000  -784.143       -332.23623      222.02779      0.5          
    966000  -812.37352     -16.270762      218.26916      0.5          
    967000  -755.82169     -87.704424      218.14806      0.5          
    968000  -748.01443     -134.049        223.4558       0.5          
    969000  -749.86628     -19.343738      222.13833      0.5          
    970000  -721.84902     -76.633774      221.42083      0.5          
    971000  -861.61212     -326.64367      220.83246      0.5          
    972000  -882.41324     -164.85622      221.60522      0.5          
    973000  -871.71014     -25.349209      220.40961      0.5          
    974000  -975.54593     -78.013793      216.95188      0.5          
    975000  -912.49712     -182.68248      217.84926      0.5          
    976000  -725.9183       135.60896      224.03256      0.5          
    977000  -888.17095      58.40684       220.69883      0.5          
    978000  -920.63284     -11.404105      218.71881      0.5          
    979000  -865.09169      199.95897      222.05763      0.5          
    980000  -876.21536     -114.94783      219.06935      0.5          
    981000  -795.12654      52.902859      219.14711      0.5          
    982000  -842.31816     -103.35526      221.42248      0.5          
    983000  -864.27406     -204.32776      219.65247      0.5          
    984000  -913.51018      96.466026      219.41704      0.5          
    985000  -863.40267      222.21484      222.05991      0.5          
    986000  -824.17159     -145.03961      221.361        0.5          
    987000  -797.85906      191.75428      224.50929      0.5          
    988000  -888.95409     -7.614558       212.09541      0.5          
    989000  -906.91716     -104.22567      219.28772      0.5          
    990000  -828.82573      103.97945      219.28531      0.5          
    991000  -704.03778      288.721        224.43634      0.5          
    992000  -767.81184      65.449843      221.28762      0.5          
    993000  -869.814       -74.967046      218.87095      0.5          
    994000  -746.07231      11.795651      223.75818      0.5          
    995000  -815.8054      -403.40028      220.61225      0.5          
    996000  -818.81589     -253.35658      219.9042       0.5          
    997000  -871.71356      112.19759      215.13505      0.5          
    998000  -718.07556      36.122057      221.39035      0.5          
    999000  -710.41189     -165.07424      221.6962       0.5          
   1000000  -703.49431     -122.12951      223.40836      0.5          
   1001000  -818.25757      236.51526      218.53736      0.5          
   1002000  -844.8984      -35.850913      219.13248      0.5          
   1003000  -791.74128     -125.08473      218.8036       0.5          
   1004000  -831.12494      50.471521      218.21093      0.5          
   1005000  -745.12027     -26.041421      222.23743      0.5          
   1006000  -762.834       -62.642423      220.72936      0.5          
   1007000  -749.08762      293.35622      222.30653      0.5          
   1008000  -814.02186      203.58005      221.18538      0.5          
   1009000  -876.75977     -111.52487      219.48828      0.5          
   1010000  -779.91021     -278.96628      224.98631      0.5          
   1011000  -966.47137      109.13337      215.69412      0.5          
   1012000  -867.92081      68.997963      219.58558      0.5          
   1013000  -802.76617      161.95615      218.7034       0.5          
   1014000  -788.41886      104.81039      221.52438      0.5          
   1015000  -955.50532     -210.89863      215.78426      0.5          
   1016000  -699.58052      90.876171      224.6998       0.5          
   1017000  -785.87021     -0.33729436     219.67165      0.5          
   1018000  -871.38839      61.122916      218.84117      0.5          
   1019000  -927.16976      54.570703      218.05184      0.5          
   1020000  -732.12298     -58.845435      223.59392      0.5          
   1021000  -801.00422      97.912186      218.67994      0.5          
   1022000  -855.15368      35.676917      218.6576       0.5          
   1023000  -898.518        89.050186      219.26911      0.5          
   1024000  -865.6155       189.55216      219.56056      0.5          
   1025000  -829.73556     -236.20423      220.20356      0.5          
   1026000  -945.43776     -17.907431      218.97909      0.5          
   1027000  -846.86854      15.387871      218.74335      0.5          
   1028000  -835.12482      180.3552       219.54952      0.5          
[...]
   3748000  -689.04262     -112.69718      217.02792      0.5          
   3749000  -689.3382       255.43533      218.39277      0.5          
   3750000  -689.89096     -11.328694      221.11571      0.5          
   3751000  -689.65209     -333.59872      219.75809      0.5          
   3752000  -689.25547      153.70049      218.09649      0.5          
   3753000  -689.39899     -8.5470186      218.62843      0.5          
   3754000  -689.61134      203.25855      220.72753      0.5          
   3755000  -689.79621     -93.721183      220.08154      0.5          
   3756000  -689.91804     -88.556525      219.59632      0.5          
   3757000  -689.75005      169.88796      221.56007      0.5          
   3758000  -689.47752      53.446466      218.94468      0.5          
   3759000  -689.81291     -144.56403      219.13023      0.5          
   3760000  -689.68554      43.135475      216.00385      0.5          
   3761000  -689.31549     -151.44564      217.94649      0.5          
   3762000  -689.49487     -240.37644      218.80551      0.5          
   3763000  -689.72098      107.90188      219.58482      0.5          
   3764000  -689.68153     -126.17937      217.5183       0.5          
   3765000  -689.2726       119.89904      217.2572       0.5          
   3766000  -689.30292      21.539406      218.49469      0.5          
   3767000  -689.38171     -218.63853      219.12966      0.5          
   3768000  -689.26774     -89.529721      218.98906      0.5          
   3769000  -689.30506     -4.7227879      220.85658      0.5          
   3770000  -689.57831     -155.07265      221.23052      0.5          
   3771000  -689.2671      -103.17186      219.14485      0.5          
   3772000  -689.46153     -31.988135      220.90865      0.5          
   3773000  -689.7049      -7.5196495      218.00777      0.5          
   3774000  -689.31227      237.42949      218.46038      0.5          
   3775000  -689.17246      41.601839      218.05681      0.5          
   3776000  -689.47494     -49.007087      215.82622      0.5          
   3777000  -689.72018      266.40768      220.5239       0.5          
   3778000  -689.64238      126.88559      220.56114      0.5          
   3779000  -689.55588      138.93695      221.84272      0.5          
   3780000  -689.4042       83.667692      220.54075      0.5          
   3781000  -689.0971      -86.441278      217.5378       0.5          
   3782000  -689.32617      119.1418       220.28082      0.5          
   3783000  -689.37386     -42.340878      218.94151      0.5          
   3784000  -689.30811     -110.67949      220.07109      0.5          
   3785000  -688.92238      348.37676      218.47851      0.5          
   3786000  -689.05889      186.38061      218.55408      0.5          
   3787000  -689.12491     -3.735466       219.42963      0.5          
   3788000  -689.51807      109.94685      221.39884      0.5          
   3789000  -689.25909     -106.64836      220.95796      0.5          
   3790000  -688.95605      13.954831      217.70314      0.5          
   3791000  -689.1612      -5.8345791      219.34627      0.5          
   3792000  -689.21069     -377.75591      219.44807      0.5          
   3793000  -689.24406     -74.668023      218.84618      0.5          
   3794000  -688.92179     -45.258857      216.47701      0.5          
   3795000  -688.92841      136.80729      218.26247      0.5          
   3796000  -688.82394     -148.63426      216.39842      0.5          
   3797000  -689.39725     -137.18634      220.84442      0.5          
   3798000  -689.01119      82.773953      219.81719      0.5          
   3799000  -688.75813      31.017457      218.5203       0.5          
   3800000  -688.72167      20.591927      218.02125      0.5          
   3801000  -688.90328     -26.856893      218.53731      0.5          
   3802000  -689.24261     -179.53385      219.88335      0.5          
   3803000  -689.01921     -65.207796      218.57755      0.5          
   3804000  -688.88931      153.96675      217.34096      0.5          
   3805000  -689.07459     -14.495628      217.24584      0.5          
   3806000  -689.38688     -109.07212      217.33671      0.5          
   3807000  -689.29082      50.432872      216.38672      0.5          
   3808000  -688.97888      18.90778       217.74763      0.5          
   3809000  -689.17896      175.80035      217.92237      0.5          
   3810000  -689.25744      221.23397      217.11274      0.5          
   3811000  -689.07287      159.24406      219.03231      0.5          
   3812000  -688.87652     -228.63465      218.50627      0.5          
   3813000  -689.07237     -152.91516      219.40711      0.5          
   3814000  -688.98152      109.62551      218.75035      0.5          
   3815000  -689.12826      114.14323      220.59178      0.5          
   3816000  -688.8554       63.429234      216.9927       0.5          
   3817000  -688.73002      28.772592      218.93548      0.5          
   3818000  -689.11153      122.29681      219.05483      0.5          
   3819000  -688.765       -68.718352      217.68845      0.5          
   3820000  -688.77035     -217.50371      219.43874      0.5          
   3821000  -688.77741      124.13777      218.13668      0.5          
   3822000  -688.83558      236.49637      220.20542      0.5          
   3823000  -688.50599      78.925197      221.36084      0.5          
   3824000  -688.64491     -415.44747      220.19424      0.5          
   3825000  -688.58349     -3.0284472      220.81474      0.5          
   3826000  -688.74814      443.3492       219.08524      0.5          
   3827000  -688.37671      84.393232      218.41158      0.5          
   3828000  -688.4573      -215.06391      216.80272      0.5          
   3829000  -688.546       -61.31661       218.57665      0.5          
   3830000  -688.5419       160.57145      219.09338      0.5          
   3831000  -688.66274      22.173767      219.72453      0.5          
   3832000  -688.45029      37.479187      217.30243      0.5          
   3833000  -688.59039      9.206881       218.74651      0.5          
   3834000  -688.72754      132.56548      220.09365      0.5          
   3835000  -688.67243     -86.292513      219.75707      0.5          
   3836000  -688.50041      36.115459      216.35853      0.5          
   3837000  -688.46721      84.053022      219.04532      0.5          
   3838000  -688.69574     -76.49929       221.58861      0.5          
   3839000  -688.25937      49.372829      218.6101       0.5          
   3840000  -688.24729      52.019499      217.56927      0.5          
   3841000  -688.36345     -138.76671      218.944        0.5          
   3842000  -688.47608     -9.0385024      220.32649      0.5          
   3843000  -688.59488     -224.17372      221.35001      0.5          
   3844000  -688.3416       2.1284543      219.09099      0.5          
   3845000  -688.28667      251.1435       217.64811      0.5          
   3846000  -688.5418      -81.56927       219.33389      0.5          
   3847000  -688.51725     -240.47579      220.23155      0.5          
   3848000  -688.4157      -7.8147634      221.01812      0.5          
   3849000  -688.20902     -92.254544      218.504        0.5          
   3850000  -688.19752     -26.626053      219.24668      0.5          
   3851000  -688.54196      77.411172      219.64536      0.5          
   3852000  -688.44626      314.75705      218.68593      0.5          
   3853000  -688.40721     -97.679113      219.97469      0.5          
   3854000  -688.38178     -23.368211      218.50087      0.5          
   3855000  -688.26625      43.051365      218.04947      0.5          
   3856000  -688.02698      6.390724       218.81146      0.5          
   3857000  -688.32348      28.448922      217.48179      0.5          
   3858000  -688.31539     -33.944425      217.84773      0.5          
   3859000  -688.36755     -165.47834      218.54709      0.5          
   3860000  -688.29893      16.018487      220.19841      0.5          
   3861000  -687.98091      12.078332      214.94418      0.5          
   3862000  -688.30467      33.145102      220.27979      0.5          
   3863000  -688.09575      32.499472      219.47689      0.5          
   3864000  -688.1519      -35.299606      218.29731      0.5          
   3865000  -688.16462      33.16991       218.56619      0.5          
   3866000  -688.40731     -244.34317      217.79946      0.5          
   3867000  -688.18056     -38.02604       219.26247      0.5          
   3868000  -688.6181      -96.847962      221.18949      0.5          
   3869000  -688.11002     -129.81633      217.66587      0.5          
   3870000  -688.41018      187.8818       217.89663      0.5          
   3871000  -688.52618     -68.464047      220.05889      0.5          
   3872000  -688.40758     -249.98191      219.92395      0.5          
   3873000  -687.91717      30.152148      216.98407      0.5          
   3874000  -688.44444      155.00398      219.4752       0.5          
   3875000  -688.34753     -131.99858      218.02289      0.5          
   3876000  -688.26288     -129.73839      218.03337      0.5          
   3877000  -688.16783      211.55676      218.31017      0.5          
   3878000  -688.1833      -6.2036351      216.71037      0.5          
   3879000  -688.55664     -156.92434      218.57972      0.5          
   3880000  -688.46759      204.7694       218.60578      0.5          
   3881000  -688.2811      -103.42027      221.71765      0.5          
   3882000  -688.01687     -241.95909      217.29302      0.5          
   3883000  -688.00802      99.279447      220.08929      0.5          
   3884000  -688.01511      171.98873      218.88218      0.5          
   3885000  -687.95911     -21.384129      222.46002      0.5          
   3886000  -687.71917      14.124198      221.3475       0.5          
   3887000  -687.70404      238.90392      219.13792      0.5          
   3888000  -687.78027     -42.925229      221.62294      0.5          
   3889000  -688.05815      128.6276       221.43031      0.5          
   3890000  -688.09725      25.571184      220.18713      0.5          
   3891000  -687.85215      142.44785      219.6379       0.5          
   3892000  -687.82765      345.6147       218.47712      0.5          
   3893000  -687.87215     -17.734777      218.00153      0.5          
   3894000  -688.09656      178.73495      218.92579      0.5          
   3895000  -688.30904     -174.46315      221.81072      0.5          
   3896000  -687.91315     -147.39572      218.96989      0.5          
   3897000  -687.75689      55.729867      216.34461      0.5          
   3898000  -687.94069     -237.49666      216.68711      0.5          
   3899000  -688.21622     -196.49205      221.32096      0.5          
   3900000  -687.94842     -103.6367       219.34954      0.5          
   3901000  -688.07226      62.655154      217.65791      0.5          
   3902000  -687.77805      0.57278526     215.25123      0.5          
   3903000  -687.88408     -277.25996      216.22602      0.5          
   3904000  -688.05054      57.855003      218.22998      0.5          
   3905000  -688.16689     -85.423842      219.22688      0.5          
   3906000  -687.72162      33.975317      216.10692      0.5          
   3907000  -687.79123     -96.186831      216.84357      0.5          
   3908000  -688.23113     -104.32476      217.77677      0.5          
   3909000  -688.1953       290.62485      217.24258      0.5          
   3910000  -688.00653     -49.150711      220.03735      0.5          
   3911000  -687.89827     -120.75096      219.13274      0.5          
   3912000  -687.96925     -204.59648      215.74759      0.5          
   3913000  -688.0279      -44.422678      219.64821      0.5          
   3914000  -687.99528     -19.565901      218.99931      0.5          
   3915000  -687.97429     -47.327729      220.68016      0.5          
   3916000  -687.86543     -73.403608      219.29832      0.5          
   3917000  -687.99477      153.65873      218.98444      0.5          
   3918000  -688.23782      247.58195      222.41632      0.5          
   3919000  -688.09727      70.5515        220.75492      0.5          
   3920000  -687.89136     -20.570952      220.2695       0.5          
   3921000  -687.66985      108.78107      217.70381      0.5          
   3922000  -688.00777      56.790739      218.0284       0.5          
   3923000  -687.99274      30.858786      220.29097      0.5          
   3924000  -687.5431       50.629643      217.84508      0.5          
   3925000  -687.38612     -50.009357      218.75693      0.5          
   3926000  -687.69998     -103.64389      218.83405      0.5          
   3927000  -687.71149      84.179904      220.13241      0.5          
   3928000  -687.36439      38.048019      217.18716      0.5          
   3929000  -687.04079     -288.0275       216.07589      0.5          
   3930000  -687.34242     -16.659475      218.049        0.5          
   3931000  -687.80827     -39.164737      218.11725      0.5          
   3932000  -687.41299     -111.61592      221.06258      0.5          
   3933000  -687.38863     -83.3616        218.62234      0.5          
   3934000  -687.2412       67.504121      216.19962      0.5          
   3935000  -687.4363      -47.339158      219.30052      0.5          
   3936000  -687.6785      -136.33441      221.87091      0.5          
   3937000  -687.1977      -82.186511      218.11937      0.5          
   3938000  -687.04485     -82.464163      217.65539      0.5          
   3939000  -687.23795     -111.3243       219.02761      0.5          
   3940000  -687.41155     -16.179034      220.32601      0.5          
   3941000  -687.05601     -4.7357812      219.26309      0.5          
   3942000  -687.01351     -262.60222      218.30819      0.5          
   3943000  -687.04208      101.44497      218.68101      0.5          
   3944000  -687.09373     -116.41215      217.76316      0.5          
   3945000  -687.06443     -162.87721      217.66422      0.5          
   3946000  -686.57125     -75.844946      217.78945      0.5          
   3947000  -686.7872      -127.34718      219.70242      0.5          
   3948000  -686.8781       30.949221      217.48152      0.5          
   3949000  -686.97495      115.16757      217.65726      0.5          
   3950000  -686.85122     -145.59108      218.14307      0.5          
   3951000  -686.96628     -209.15058      219.11498      0.5          
   3952000  -687.21036     -49.678746      217.8783       0.5          
   3953000  -687.16534     -108.34713      218.88871      0.5          
   3954000  -687.32707     -104.03937      217.5817       0.5          
   3955000  -687.2951       45.815226      216.28026      0.5          
   3956000  -687.20627      99.822914      216.98621      0.5          
   3957000  -687.52014     -178.37501      221.99406      0.5          
   3958000  -687.38712     -109.46988      221.22706      0.5          
   3959000  -687.59201     -55.015135      217.6913       0.5          
   3960000  -687.3933      -131.06922      216.72221      0.5          
   3961000  -687.53356      113.94956      218.55119      0.5          
   3962000  -687.27503      157.17147      217.98699      0.5          
   3963000  -687.29775      158.17274      217.60336      0.5          
   3964000  -687.40912     -80.828403      217.38357      0.5          
   3965000  -687.31641     -27.744102      217.766        0.5          
   3966000  -687.26466     -84.452162      220.02941      0.5          
   3967000  -686.99587      57.996452      217.08773      0.5          
   3968000  -687.25281      42.944006      217.14372      0.5          
   3969000  -687.28625     -26.828263      219.93418      0.5          
   3970000  -687.11594      74.57763       218.96941      0.5          
   3971000  -687.38342      234.80384      222.00133      0.5          
   3972000  -687.00721      9.9748058      218.00361      0.5          
   3973000  -687.14283      100.56574      218.56296      0.5          
   3974000  -687.12091      121.38885      221.92872      0.5          
   3975000  -687.09515     -136.85781      222.59643      0.5          
   3976000  -687.14355     -144.89978      220.58867      0.5          
   3977000  -687.17835      149.59935      219.46874      0.5          
   3978000  -687.01701      127.36601      218.90364      0.5          
   3979000  -686.88989     -49.147914      218.57056      0.5          
   3980000  -687.30171      141.73264      222.48903      0.5          
   3981000  -687.05228      60.565494      217.36419      0.5          
   3982000  -686.87485      62.954825      215.88992      0.5          
   3983000  -687.08079     -106.70686      220.7657       0.5          
   3984000  -687.35763      13.107676      222.13099      0.5          
   3985000  -687.01978      152.95041      216.05564      0.5          
   3986000  -686.56016      3.7388697      215.39174      0.5          
   3987000  -686.73975     -27.727294      217.13284      0.5          
   3988000  -687.09495     -1.9924833      218.89472      0.5          
   3989000  -687.15646      16.254844      218.85747      0.5          
   3990000  -686.99001     -183.95177      219.96889      0.5          
   3991000  -686.82971     -115.46813      216.0549       0.5          
   3992000  -686.90608     -62.348485      215.23192      0.5          
   3993000  -687.24484      43.279182      214.2511       0.5          
   3994000  -687.24405      124.7997       217.95527      0.5          
   3995000  -686.7674      -73.480358      214.60441      0.5          
   3996000  -686.93992     -55.201888      217.83578      0.5          
   3997000  -687.12569     -66.03019       217.29114      0.5          
   3998000  -687.1125       32.73235       217.15174      0.5          
   3999000  -687.14341     -34.444742      219.5397       0.5          
   4000000  -686.769       -4.2453266      218.10546      0.5          
Loop time of 51724 on 2 procs for 2000000 steps with 7050 atoms

Performance: 1.670 ns/day, 14.368 hours/ns, 38.667 timesteps/s, 272.600 katom-step/s
99.3% CPU use with 2 MPI tasks x 1 OpenMP threads

MPI task timing breakdown:
Section |  min time  |  avg time  |  max time  |%varavg| %total
---------------------------------------------------------------
Pair    | 42846      | 43514      | 44181      | 320.1 | 84.13
Bond    | 172.97     | 175.78     | 178.6      |  21.2 |  0.34
Kspace  | 6340.7     | 6973.3     | 7605.9     | 757.5 | 13.48
Neigh   | 350.77     | 350.78     | 350.79     |   0.1 |  0.68
Comm    | 347.38     | 379.69     | 412        | 165.8 |  0.73
Output  | 10.422     | 12.226     | 14.031     |  51.6 |  0.02
Modify  | 293.15     | 295.44     | 297.73     |  13.3 |  0.57
Other   |            | 23.09      |            |       |  0.04

Nlocal:           3525 ave        3643 max        3407 min
Histogram: 1 0 0 0 0 0 0 0 0 1
Nghost:          20358 ave       20463 max       20253 min
Histogram: 1 0 0 0 0 0 0 0 0 1
Neighs:    1.52855e+06 ave 1.58245e+06 max 1.47464e+06 min
Histogram: 1 0 0 0 0 0 0 0 0 1

Total # of neighbors = 3057095
Ave neighs/atom = 433.6305
Ave special neighs/atom = 2
Neighbor list builds = 8207
Dangerous builds = 0
System init for write_data ...
PPPM initialization ...
  using 12-bit tables for long-range coulomb (src/kspace.cpp:342)
  G vector (1/distance) = 0.20169663
  grid = 24 24 80
  stencil order = 5
  estimated absolute RMS force accuracy = 0.00286774
  estimated relative force accuracy = 8.6361139e-06
  using single precision FFTW3
  3d grid and FFT values/proc = 50654 23040
Generated 1 of 1 mixed pair_coeff terms from arithmetic mixing rule
Last active /omp style is kspace_style pppm/omp
