units		    real
atom_style	    full
boundary        p p p
pair_style      lj/cut/coul/long 14
pair_modify     shift yes mix arithmetic tail no
kspace_style    pppm 1e-5
bond_style      harmonic
angle_style     harmonic
processors      2 2 *

#----------------------------------------------------------------------------#
#                               Variables
#----------------------------------------------------------------------------#

variable  TEMP_INDEX       equal 220
variable  simulationTemp   equal ${TEMP_INDEX}
variable  simulationTemp   equal 220
variable  timestep         equal 0.5
variable  RandomSeed       equal 1000
variable  Seed_L           equal ${RandomSeed}*7
variable  Seed_L           equal 1000*7
variable  Seed_V1          equal ${RandomSeed}*2
variable  Seed_V1          equal 1000*2
variable  Seed_V2          equal ${RandomSeed}*5
variable  Seed_V2          equal 1000*5

variable  nz_bin           equal 100
variable  bin_size         equal 1/${nz_bin}
variable  bin_size         equal 1/100
variable  restartfreq      equal 2000000        # 1 ns
variable  balance_freq     equal 8000000        # 4 ns
variable  thermo_num       equal 1000
variable  Lz               equal lz
variable  TEMPERATURE      equal temp
variable  PRESSURE         equal press
variable  KE               equal ke
variable  PE               equal pe
variable  TOT_ENG          equal etotal
variable  ECOUPLE          equal ecouple
variable  ECONSERVE        equal econserve

variable  Nnvt             equal 2000000     # 1 ns

#----------------------------------------------------------------------------#
#                        Simulation cell creation
#----------------------------------------------------------------------------#

region          box block 0 40 0 40 0 240

create_box      2 box                                       bond/types 1                                angle/types 1                               extra/bond/per/atom 2                       extra/angle/per/atom 1                      extra/special/per/atom 2
Created orthogonal box = (0 0 0) to (40 40 240)
  2 by 2 by 4 MPI processor grid

molecule        co2mol CO2.mol
Read molecule template co2mol:
# CO2 molecule file. TraPPE-Flex model.
  1 molecules
  0 fragments
  3 atoms with max type 2
  2 bonds with max type 1
  1 angles with max type 1
  0 dihedrals with max type 0
  0 impropers with max type 0
print           "Molecule file loaded successfully"
Molecule file loaded successfully

region          liquid  block 0 40 0 40 75 165
region          vapor_1 block 0 40 0 40 0 75
region          vapor_2 block 0 40 0 40 165 240

create_atoms   	0 random 2298 ${Seed_L}  liquid  mol co2mol 3 overlap 2 maxtry 10000
create_atoms   	0 random 2298 7000  liquid  mol co2mol 3 overlap 2 maxtry 10000
Created 6894 atoms
  using lattice units in orthogonal box = (0 0 0) to (40 40 240)
  create_atoms CPU = 0.269 seconds
create_atoms   	0 random 26 ${Seed_V1} vapor_1 mol co2mol 3 overlap 2 maxtry 10000
create_atoms   	0 random 26 2000 vapor_1 mol co2mol 3 overlap 2 maxtry 10000
Created 78 atoms
  using lattice units in orthogonal box = (0 0 0) to (40 40 240)
  create_atoms CPU = 0.005 seconds
create_atoms   	0 random 26 ${Seed_V2} vapor_2 mol co2mol 3 overlap 2 maxtry 10000
create_atoms   	0 random 26 5000 vapor_2 mol co2mol 3 overlap 2 maxtry 10000
Created 78 atoms
  using lattice units in orthogonal box = (0 0 0) to (40 40 240)
  create_atoms CPU = 0.005 seconds

include         trappe_flex.FF
#----------------------------------------------------------------------------#
# FORCEFIELD - TraPPE Flexible model for CO2 (DOI- 10.1021/acs.jced.9b00006)
#----------------------------------------------------------------------------#

pair_coeff      1   1  0.0536545107   2.8         # O=[C]=O
pair_coeff      2   2  0.1569891239   3.05        # [O]=C=O

bond_coeff      1   1028.266  1.16

angle_coeff     1   55.96  180

mass            1   12.010700                     # C
mass            2   15.999400                     # O

set type        1   charge     +0.7000            # C
Setting atom values ...
  2350 settings made for charge
set type        2   charge     -0.3500            # O
Setting atom values ...
  4700 settings made for charge
# read_restart   restart_CO2.2

print           "lz=${Lz}"
lz=240

#----------------------------------------------------------------------------#
#                           GROUPS / NEIGHBOUR-LIST / BALANCE
#----------------------------------------------------------------------------#

group           car  type 1
2350 atoms in group car
group           oxy  type 2
4700 atoms in group oxy

neighbor	    3.0 bin
neigh_modify    every 1 delay 0 check yes
run_style       verlet
balance         0.8 shift xyz 20 1.2 out tmp.balance
Balancing ...
PPPM initialization ...
  using 12-bit tables for long-range coulomb (src/kspace.cpp:342)
  G vector (1/distance) = 0.20169663
  grid = 24 24 80
  stencil order = 5
  estimated absolute RMS force accuracy = 0.00286774
  estimated relative force accuracy = 8.6361139e-06
  using single precision FFTW3
  3d grid and FFT values/proc = 9386 2880
Generated 1 of 1 mixed pair_coeff terms from arithmetic mixing rule
Last active /omp style is kspace_style pppm/omp
Neighbor list info ...
  update: every = 1 steps, delay = 0 steps, check = yes
  max neighbors/atom: 2000, page size: 100000
  master list distance cutoff = 17
  ghost atom cutoff = 17
  binsize = 8.5, bins = 5 5 29
  1 neighbor lists, perpetual/occasional/extra = 1 0 0
  (1) pair lj/cut/coul/long/omp, perpetual
      attributes: half, newton on, omp
      pair build: half/bin/newton/omp
      stencil: half/bin/3d
      bin: standard
 rebalancing time: 0.008 seconds
  iteration count = 13
  initial/final maximal load/proc = 896 533
  initial/final imbalance factor  = 2.0334752 1.2096454
  x cuts: 0 0.46875 1
  y cuts: 0 0.46875 1
  z cuts: 0 0.3984375 0.4921875 0.6015625 1

#----------------------------------------------------------------------------#
#                           CONGUGATE-GRADIENT MINIMIZATION/Initialization
#----------------------------------------------------------------------------#

minimize        1e-6 1e-8 100000 10000000
PPPM initialization ...
  using 12-bit tables for long-range coulomb (src/kspace.cpp:342)
  G vector (1/distance) = 0.20169663
  grid = 24 24 80
  stencil order = 5
  estimated absolute RMS force accuracy = 0.00286774
  estimated relative force accuracy = 8.6361139e-06
  using single precision FFTW3
  3d grid and FFT values/proc = 15200 5408
Generated 1 of 1 mixed pair_coeff terms from arithmetic mixing rule
Last active /omp style is kspace_style pppm/omp
Per MPI rank memory allocation (min/avg/max) = 9.327 | 9.72 | 10.12 Mbytes
   Step          Temp          E_pair         E_mol          TotEng         Press     
         0   0              49336.872      7.9026918e-12  49336.872      43177.231    
      3744   0             -12017.396      22.244772     -11995.151     -269.88515    
Loop time of 59.4548 on 16 procs for 3744 steps with 7050 atoms

99.4% CPU use with 16 MPI tasks x 1 OpenMP threads

Minimization stats:
  Stopping criterion = energy tolerance
  Energy initial, next-to-last, final = 
      49336.8715517685  -11995.1452362836  -11995.1512611562
  Force two-norm initial, final = 12256.268 4.3582724
  Force max component initial, final = 805.65186 0.75147622
  Final line search alpha, max atom move = 0.067089808 0.050416395
  Iterations, force evaluations = 3744 7418

MPI task timing breakdown:
Section |  min time  |  avg time  |  max time  |%varavg| %total
---------------------------------------------------------------
Pair    | 16.177     | 35.86      | 51.982     | 191.7 | 60.32
Bond    | 0.083175   | 0.10999    | 0.1387     |   5.2 |  0.18
Kspace  | 5.4378     | 21.683     | 41.441     | 247.6 | 36.47
Neigh   | 0.35536    | 0.35651    | 0.35851    |   0.2 |  0.60
Comm    | 0.91852    | 1.1274     | 1.2866     |  11.1 |  1.90
Output  | 0          | 0          | 0          |   0.0 |  0.00
Modify  | 0.039668   | 0.056114   | 0.07578    |   5.9 |  0.09
Other   |            | 0.2617     |            |       |  0.44

Nlocal:        440.625 ave         653 max         260 min
Histogram: 3 5 0 0 0 1 0 3 2 2
Nghost:         6790.5 ave        9372 max        4673 min
Histogram: 6 2 0 0 0 0 1 2 3 2
Neighs:         241970 ave      398783 max       72378 min
Histogram: 4 0 1 3 0 0 1 2 2 3

Total # of neighbors = 3871526
Ave neighs/atom = 549.15262
Ave special neighs/atom = 2
Neighbor list builds = 40
Dangerous builds = 0
fix             COM_DRIFT all momentum 1 linear 1 1 1 rescale
velocity        all create ${simulationTemp} ${RandomSeed} mom yes rot yes dist gaussian
velocity        all create 220 ${RandomSeed} mom yes rot yes dist gaussian
velocity        all create 220 1000 mom yes rot yes dist gaussian
velocity        all zero linear
velocity        all zero angular
thermo_style    custom step etotal press temp dt
thermo_modify   flush yes
thermo          ${thermo_num}
thermo          1000
reset_timestep  0
write_data      ${NAME}_init.data
write_data      CO2_init.data
System init for write_data ...
PPPM initialization ...
  using 12-bit tables for long-range coulomb (src/kspace.cpp:342)
  G vector (1/distance) = 0.20169663
  grid = 24 24 80
  stencil order = 5
  estimated absolute RMS force accuracy = 0.00286774
  estimated relative force accuracy = 8.6361139e-06
  using single precision FFTW3
  3d grid and FFT values/proc = 15200 5408
Generated 1 of 1 mixed pair_coeff terms from arithmetic mixing rule
Last active /omp style is kspace_style pppm/omp

#----------------------------------------------------------------------------#
#                           Compute
#----------------------------------------------------------------------------#

compute         layers  all chunk/atom bin/1d z lower ${bin_size} units reduced
compute         layers  all chunk/atom bin/1d z lower 0.01 units reduced
compute         T       all temp
compute         pTensor all pressure T
compute         mom     all momentum

variable        TM      equal mass(all)
variable        vx_com  equal c_mom[1]/v_TM
variable        vy_com  equal c_mom[2]/v_TM
variable        vz_com  equal c_mom[3]/v_TM

#----------------------------------------------------------------------------#
#                           Write Headers to Files
#----------------------------------------------------------------------------#

print "#Step Pxx Pyy Pzz" file pressure_tensor.dat
#Step Pxx Pyy Pzz
print "#Step temp press ke pe etotal ecouple econserve" file Energy.dat
#Step temp press ke pe etotal ecouple econserve
print "#Step px py pz COM_vx COM_vy COM_vz" file Momentum.dat
#Step px py pz COM_vx COM_vy COM_vz

#----------------------------------------------------------------------------#
#                           NVT (Initialization/Production)
#----------------------------------------------------------------------------#

fix             NVE          all    nve
fix             NVT          all    temp/csvr  ${simulationTemp} ${simulationTemp} 100 ${RandomSeed}
fix             NVT          all    temp/csvr  220 ${simulationTemp} 100 ${RandomSeed}
fix             NVT          all    temp/csvr  220 220 100 ${RandomSeed}
fix             NVT          all    temp/csvr  220 220 100 1000
fix             CPU_BALANCE  all    balance    ${balance_freq} 0.8 shift xyz 20 1.2
fix             CPU_BALANCE  all    balance    8000000 0.8 shift xyz 20 1.2
fix		        dens_profile all    ave/chunk  10 100 1000 layers density/mass file massdens_profile.dat
fix             1            all    ave/time   10 100 1000 c_pTensor[1] c_pTensor[2] c_pTensor[3] file pressure_tensor.dat
fix             2            all    ave/time   ${thermo_num} 1 ${thermo_num} v_TEMPERATURE v_PRESSURE v_KE v_PE v_TOT_ENG v_ECOUPLE v_ECONSERVE file Energy.dat
fix             2            all    ave/time   1000 1 ${thermo_num} v_TEMPERATURE v_PRESSURE v_KE v_PE v_TOT_ENG v_ECOUPLE v_ECONSERVE file Energy.dat
fix             2            all    ave/time   1000 1 1000 v_TEMPERATURE v_PRESSURE v_KE v_PE v_TOT_ENG v_ECOUPLE v_ECONSERVE file Energy.dat
fix             3            all    ave/time   ${thermo_num} 1 ${thermo_num} c_mom[1] c_mom[2] c_mom[3] v_vx_com v_vy_com v_vz_com file Momentum.dat
fix             3            all    ave/time   1000 1 ${thermo_num} c_mom[1] c_mom[2] c_mom[3] v_vx_com v_vy_com v_vz_com file Momentum.dat
fix             3            all    ave/time   1000 1 1000 c_mom[1] c_mom[2] c_mom[3] v_vx_com v_vy_com v_vz_com file Momentum.dat

timestep        0.5
restart         ${restartfreq} restart_${NAME}.1 restart_${NAME}.2
restart         2000000 restart_${NAME}.1 restart_${NAME}.2
restart         2000000 restart_CO2.1 restart_${NAME}.2
restart         2000000 restart_CO2.1 restart_CO2.2
run             ${Nnvt}
run             2000000
PPPM initialization ...
  using 12-bit tables for long-range coulomb (src/kspace.cpp:342)
  G vector (1/distance) = 0.20169663
  grid = 24 24 80
  stencil order = 5
  estimated absolute RMS force accuracy = 0.00286774
  estimated relative force accuracy = 8.6361139e-06
  using single precision FFTW3
  3d grid and FFT values/proc = 15200 5408
Generated 1 of 1 mixed pair_coeff terms from arithmetic mixing rule
Last active /omp style is kspace_style pppm/omp
Per MPI rank memory allocation (min/avg/max) = 8.775 | 9.142 | 9.671 Mbytes
   Step         TotEng         Press           Temp            Dt      
         0  -7372.5707      280.39789      220            0.5          
      1000  -3255.5019      1527.2265      221.01852      0.5          
      2000  -2817.598       1341.752       198.46654      0.5          
      3000  -2389.1027     -145.4098       212.68075      0.5          
      4000  -2264.7588      294.20473      226.13347      0.5          
      5000  -2169.3854     -31.322801      225.13248      0.5          
      6000  -1881.2984     -396.90884      219.49998      0.5          
      7000  -1719.9038     -161.59307      210.40171      0.5          
      8000  -1516.836       36.215713      215.03378      0.5          
      9000  -1236.393      -360.41727      219.75517      0.5          
     10000  -989.60149     -370.05569      218.95848      0.5          
     11000  -819.0018      -443.86777      217.47477      0.5          
     12000  -850.81391     -473.62069      218.7721       0.5          
     13000  -642.56537     -192.91462      221.97051      0.5          
     14000  -619.77447     -72.426647      223.35821      0.5          
     15000  -621.21389     -146.87817      223.3549       0.5          
     16000  -670.54674     -229.357        218.45142      0.5          
     17000  -671.76019     -124.31162      219.99817      0.5          
     18000  -809.95709     -30.781426      222.6078       0.5          
     19000  -793.71715     -193.8411       221.14504      0.5          
     20000  -777.39719     -25.631353      219.89671      0.5          
     21000  -955.0211      -163.16674      216.52634      0.5          
     22000  -920.00612     -264.60505      219.26927      0.5          
     23000  -943.23149      47.572388      218.70527      0.5          
     24000  -934.99601      344.42251      216.88565      0.5          
     25000  -847.70188     -120.08324      219.22476      0.5          
     26000  -861.15478     -31.253509      221.00231      0.5          
     27000  -847.89237     -81.308468      219.56248      0.5          
     28000  -913.57004      36.533831      219.85034      0.5          
     29000  -814.70247     -177.88212      217.06605      0.5          
     30000  -905.46731     -196.53812      218.0251       0.5          
     31000  -739.95496     -29.867784      223.32646      0.5          
     32000  -916.96221      48.764578      217.08632      0.5          
     33000  -982.51762     -6.8676914      216.74517      0.5          
     34000  -822.64572      190.37338      222.66951      0.5          
     35000  -904.90393     -150.12759      217.28081      0.5          
     36000  -987.28591     -220.01165      217.84152      0.5          
     37000  -971.24327      326.42623      216.09897      0.5          
     38000  -875.9911       50.546706      221.3938       0.5          
     39000  -896.57878     -272.96326      219.82644      0.5          
     40000  -956.79331      259.6973       220.81189      0.5          
     41000  -890.25924      179.88234      221.08517      0.5          
     42000  -877.38618      64.251876      221.44629      0.5          
     43000  -749.07336      207.04739      225.79043      0.5          
     44000  -856.2206       70.933153      218.68329      0.5          
     45000  -822.85456     -228.8129       221.30405      0.5          
     46000  -756.96503      129.70121      220.34793      0.5          
     47000  -745.1339       99.400316      219.80642      0.5          
     48000  -798.20306     -228.84973      223.68967      0.5          
     49000  -866.62446     -102.83817      217.87056      0.5          
     50000  -799.79231      97.266116      221.84357      0.5          
     51000  -935.19959     -6.5650977      221.00016      0.5          
     52000  -897.74777     -146.46536      217.65733      0.5          
     53000  -910.3164       189.15564      218.90052      0.5          
     54000  -817.78215      5.7997871      221.03703      0.5          
     55000  -979.33439     -119.64448      214.50537      0.5          
     56000  -912.51596      193.58121      218.05459      0.5          
     57000  -780.82417     -11.110826      221.49091      0.5          
     58000  -755.22296      78.865872      220.97238      0.5          
     59000  -872.79883     -12.600078      219.00701      0.5          
     60000  -940.14987     -324.92858      216.74603      0.5          
     61000  -887.85896      65.797247      221.21848      0.5          
     62000  -904.59156      234.4993       217.65213      0.5          
     63000  -996.04937     -166.33411      220.20292      0.5          
     64000  -759.42241      116.0088       224.02127      0.5          
     65000  -905.03667      21.02445       220.0233       0.5          
     66000  -980.22187      87.433318      218.91325      0.5          
     67000  -997.80236      96.83619       216.93858      0.5          
     68000  -976.88526     -42.439956      216.8842       0.5          
     69000  -838.94185     -252.9492       221.34128      0.5          
     70000  -747.05336     -326.78795      220.37154      0.5          
     71000  -769.37623      145.01991      225.81466      0.5          
     72000  -841.10804      88.245611      216.34873      0.5          
     73000  -845.56818     -3.6489577      215.67686      0.5          
     74000  -736.23599      175.08081      224.21288      0.5          
     75000  -883.47132      4.4792371      218.06401      0.5          
     76000  -919.40232     -109.16981      216.71386      0.5          
     77000  -893.63743     -282.20262      216.7884       0.5          
     78000  -864.88805      73.097987      219.68913      0.5          
     79000  -841.5659      -76.705745      217.76636      0.5          
     80000  -833.59488      74.980243      218.89055      0.5          
     81000  -858.00697     -173.44714      219.43227      0.5          
     82000  -791.10801     -184.00376      221.89876      0.5          
     83000  -862.74196     -20.86783       218.12204      0.5          
     84000  -818.29141     -24.014571      217.10456      0.5          
     85000  -792.82108     -12.863323      218.94989      0.5          
     86000  -869.47278     -66.581959      217.83749      0.5          
     87000  -735.22092      31.172361      223.2936       0.5          
     88000  -725.98735     -142.35244      221.71066      0.5          
     89000  -867.49792     -355.09176      220.94601      0.5          
     90000  -873.63597      70.830691      218.10893      0.5          
     91000  -868.93067     -39.081834      220.51076      0.5          
     92000  -758.09056     -176.33864      221.25998      0.5          
     93000  -788.09653     -92.999945      220.5378       0.5          
     94000  -777.23203     -368.68211      218.59346      0.5          
     95000  -775.87464     -95.115646      218.56299      0.5          
     96000  -866.73466      53.780972      218.16423      0.5          
     97000  -723.26904      33.025213      221.28305      0.5          
     98000  -708.85875     -146.6151       220.39869      0.5          
     99000  -831.93886      36.509006      220.83945      0.5          
    100000  -904.49447     -26.094704      216.46011      0.5          
    101000  -814.37243      103.66016      223.90122      0.5          
    102000  -878.11816     -58.948781      220.60586      0.5          
    103000  -725.67765      13.964667      223.49261      0.5          
    104000  -769.3522       138.25458      220.70102      0.5          
    105000  -802.03572      149.48949      219.70801      0.5          
    106000  -893.11757     -10.718294      218.58368      0.5          
    107000  -887.17415      69.827842      217.66353      0.5          
    108000  -802.83203      225.32233      222.47199      0.5          
    109000  -851.7509      -90.548326      219.56403      0.5          
    110000  -796.30902     -30.594822      219.42018      0.5          
    111000  -767.2898      -153.03391      220.06664      0.5          
    112000  -821.57814      25.187783      219.70916      0.5          
    113000  -898.7566       111.83679      217.59662      0.5          
    114000  -649.07533      117.99632      224.72471      0.5          
    115000  -731.76834     -271.31417      218.61668      0.5          
    116000  -717.82783     -88.177056      220.28768      0.5          
    117000  -685.50886      359.55699      224.67217      0.5          
    118000  -804.88444     -53.705543      219.59015      0.5          
    119000  -805.41854      76.822433      220.95614      0.5          
    120000  -652.88846      56.371379      223.95004      0.5          
    121000  -744.69719      138.37731      221.27987      0.5          
    122000  -802.58633      123.46458      218.46723      0.5          
    123000  -647.92934      144.31685      225.95422      0.5          
    124000  -749.84183      60.997986      219.41125      0.5          
    125000  -735.77847      25.256726      218.79281      0.5          
    126000  -810.42309      13.995383      219.29375      0.5          
    127000  -812.22003     -88.58296       220.27673      0.5          
    128000  -704.63235     -229.04352      220.4853       0.5          
    129000  -776.21182     -3.6791822      218.5154       0.5          
    130000  -631.35251     -8.8126014      222.06153      0.5          
    131000  -629.31983      294.52577      224.94866      0.5          
    132000  -755.3527      -167.87189      220.58063      0.5          
    133000  -787.36264     -191.56166      217.90785      0.5          
    134000  -837.18041     -160.29485      217.02264      0.5          
    135000  -711.55668     -159.00544      216.01001      0.5          
    136000  -578.18177      91.293983      223.54644      0.5          
    137000  -645.09069      42.901624      220.38623      0.5          
    138000  -676.01726     -181.67676      221.33391      0.5          
    139000  -643.00827     -152.82394      223.66281      0.5          
    140000  -575.30357     -78.576419      221.96027      0.5          
    141000  -722.49588     -275.96354      219.01362      0.5          
    142000  -722.10584     -172.59835      221.19467      0.5          
    143000  -775.31228      128.22844      217.54594      0.5          
    144000  -638.76846      87.266776      222.10852      0.5          
    145000  -743.18199     -207.15271      218.15078      0.5          
    146000  -760.13022     -123.89292      219.69869      0.5          
    147000  -675.44335     -89.543401      220.68719      0.5          
    148000  -592.96011     -409.73077      223.83263      0.5          
    149000  -539.70535     -147.65852      226.24415      0.5          
    150000  -683.58555     -26.011838      222.27844      0.5          
    151000  -606.25891     -170.64814      222.88653      0.5          
    152000  -739.52228      7.1427158      219.20148      0.5          
    153000  -816.55565      89.414125      217.07422      0.5          
    154000  -793.72587     -162.05226      217.70214      0.5          
    155000  -809.18013      23.982928      219.10915      0.5          
    156000  -802.97168      227.0196       219.2003       0.5          
    157000  -847.65084     -122.45682      218.29346      0.5          
    158000  -721.98873      3.6342495      221.36505      0.5          
    159000  -794.94007      109.66672      219.42896      0.5          
    160000  -821.97406     -47.741435      218.33093      0.5          
    161000  -770.27577     -25.084794      216.76811      0.5          
    162000  -651.11263      48.449574      221.82351      0.5          
    163000  -628.67594     -206.66088      221.29136      0.5          
    164000  -617.98242     -150.81684      223.2888       0.5          
    165000  -644.98321      103.37561      220.3927       0.5          
    166000  -698.54385      140.65159      221.49199      0.5          
    167000  -792.04606     -192.22534      218.37434      0.5          
    168000  -758.6751      -33.03555       219.04814      0.5          
    169000  -593.92348     -90.595192      222.77322      0.5          
    170000  -697.53956     -198.61749      221.24641      0.5          
    171000  -737.12205      76.049444      220.46513      0.5          
    172000  -795.67869      35.010586      223.16248      0.5          
    173000  -803.13618     -83.869648      219.75686      0.5          
    174000  -741.67121      50.519959      218.53903      0.5          
    175000  -720.88324     -198.81793      223.69986      0.5          
    176000  -662.39161     -37.140145      221.2741       0.5          
    177000  -705.83003      174.38646      218.92659      0.5          
    178000  -767.5632      -58.011441      219.69468      0.5          
    179000  -703.85396     -302.49048      219.72759      0.5          
    180000  -788.48886      209.65053      218.60897      0.5          
    181000  -727.72054      18.207022      218.43194      0.5          
    182000  -734.54962     -46.263847      221.69755      0.5          
    183000  -773.11524     -84.927002      218.12839      0.5          
    184000  -698.78674     -80.175448      219.99094      0.5          
    185000  -656.17916     -1.8233006      218.58285      0.5          
    186000  -578.10918     -58.196172      221.36161      0.5          
    187000  -703.19169     -87.747053      218.95696      0.5          
    188000  -613.51343      16.957873      222.37597      0.5          
    189000  -762.03365      45.915537      219.15602      0.5          
    190000  -777.49204     -126.65406      214.17851      0.5          
    191000  -773.55669      95.311761      217.04669      0.5          
    192000  -712.19363     -221.64507      218.8248       0.5          
    193000  -661.94744      98.347955      223.10551      0.5          
    194000  -584.45877      238.84159      223.53204      0.5          
    195000  -787.32256      3.8079126      218.00622      0.5          
    196000  -707.57658      153.20479      218.84227      0.5          
    197000  -746.39557      6.2316813      219.62804      0.5          
    198000  -690.46488     -337.45235      221.30563      0.5          
    199000  -725.61712      88.172393      218.38726      0.5          
    200000  -715.71425      115.73644      222.13635      0.5          
    201000  -782.04037     -238.11792      220.03037      0.5          
    202000  -754.06952     -41.867117      220.86913      0.5          
    203000  -760.72032      272.28008      217.89661      0.5          
    204000  -793.99039     -43.936865      218.2965       0.5          
    205000  -723.50795     -338.58657      222.05061      0.5          
    206000  -680.69131      76.567503      223.22405      0.5          
    207000  -851.36813      64.452669      220.29492      0.5          
    208000  -849.20634     -359.46776      219.63284      0.5          
    209000  -919.5053      -133.15352      219.23354      0.5          
    210000  -783.83289      117.19503      219.88215      0.5          
    211000  -830.18592      41.475973      218.07265      0.5          
    212000  -697.24553     -135.56845      221.75956      0.5          
    213000  -693.41999     -69.333508      220.9637       0.5          
    214000  -849.16672      83.172363      216.93166      0.5          
    215000  -709.63554     -61.320667      218.99511      0.5          
    216000  -734.71135     -237.53706      219.77882      0.5          
    217000  -676.05475      91.723696      221.99403      0.5          
    218000  -675.32008      423.95095      222.0207       0.5          
    219000  -843.84884     -43.106763      215.09367      0.5          
    220000  -744.7173      -264.77897      218.24288      0.5          
    221000  -704.06679     -118.30709      221.42875      0.5          
    222000  -750.35337      117.08161      218.7283       0.5          
    223000  -658.02698     -47.290069      221.94732      0.5          
    224000  -691.49999      92.757439      217.93868      0.5          
    225000  -655.00906     -30.332232      220.44204      0.5          
    226000  -674.04819     -93.176973      220.84023      0.5          
    227000  -626.05361     -50.596101      223.60662      0.5          
    228000  -818.12727      388.75856      216.09974      0.5          
    229000  -795.15364     -328.52866      221.09404      0.5          
    230000  -762.48091      102.44235      220.41212      0.5          
    231000  -750.16905      310.37526      221.02639      0.5          
    232000  -724.70628     -152.5075       219.54726      0.5          
    233000  -751.90516     -317.60786      220.31569      0.5          
    234000  -792.48333     -4.3633803      217.79573      0.5          
    235000  -747.54332      137.95018      219.90155      0.5          
    236000  -731.10226      155.95786      221.6004       0.5          
    237000  -812.83069      265.45354      218.16899      0.5          
    238000  -693.62992      145.61245      218.58098      0.5          
    239000  -692.08524      159.12771      220.58154      0.5          
    240000  -619.681       -24.472001      224.28124      0.5          
    241000  -590.4441      -96.012475      222.42119      0.5          
    242000  -677.00797      278.62656      218.02629      0.5          
    243000  -603.55737     -12.423866      220.29003      0.5          
    244000  -561.66774     -282.28895      222.62311      0.5          
    245000  -554.68242     -234.68527      225.27634      0.5          
    246000  -695.4294      -20.778152      221.32399      0.5          
    247000  -657.54955      170.30522      219.51322      0.5          
    248000  -657.51079     -23.693128      217.56015      0.5          
    249000  -619.89432     -100.5506       219.7831       0.5          
    250000  -605.55866     -121.75284      222.05471      0.5          
    251000  -680.41511     -24.990563      217.04432      0.5          
    252000  -703.65181     -174.41832      217.24328      0.5          
    253000  -584.75905     -192.73124      217.86549      0.5          
    254000  -591.78596      322.94365      222.18749      0.5          
    255000  -686.56097      167.07966      217.23333      0.5          
    256000  -627.32735     -230.87263      220.98017      0.5          
    257000  -546.52226     -56.421884      222.96269      0.5          
    258000  -613.40518     -35.951433      219.28217      0.5          
    259000  -606.86366      32.729863      220.67946      0.5          
    260000  -623.65104     -41.648474      220.6869       0.5          
    261000  -631.77802      76.299347      218.33288      0.5          
    262000  -597.78531     -11.114778      221.44463      0.5          
    263000  -541.00829     -18.040147      221.4923       0.5          
    264000  -504.72694     -178.19921      223.59792      0.5          
    265000  -586.4003       3.5437346      222.21433      0.5          
    266000  -679.82611      160.94623      216.35116      0.5          
    267000  -644.55664      19.417956      219.6709       0.5          
    268000  -572.06461     -74.454871      221.9638       0.5          
    269000  -568.39981     -74.619114      222.79773      0.5          
    270000  -616.52486     -48.545689      222.78677      0.5          
    271000  -535.62005      31.605812      225.55852      0.5          
    272000  -700.80959      17.573541      217.23273      0.5          
    273000  -756.09032      37.07777       219.00151      0.5          
    274000  -746.3909       150.50875      219.07168      0.5          
    275000  -684.95142      15.544357      222.05902      0.5          
    276000  -762.09741     -52.93332       221.63886      0.5          
    277000  -609.87284     -135.46026      222.76477      0.5          
    278000  -720.86169     -33.603403      220.19508      0.5          
    279000  -706.50943      118.73005      222.92563      0.5          
    280000  -810.45015     -24.517706      219.09532      0.5          
    281000  -651.44266     -14.918668      219.92462      0.5          
    282000  -754.76281      263.70064      216.76782      0.5          
    283000  -567.46884     -56.976304      221.2104       0.5          
    284000  -652.99254     -74.397431      219.04241      0.5          
    285000  -542.73018      332.58076      223.27988      0.5          
    286000  -739.27969     -22.417651      217.81051      0.5          
    287000  -555.02206      78.006232      223.57227      0.5          
    288000  -603.64114     -43.561477      222.80897      0.5          
    289000  -672.92775     -178.11355      221.09194      0.5          
    290000  -763.22474      138.9492       217.45578      0.5          
    291000  -642.31095      118.8258       220.35014      0.5          
    292000  -668.55706      43.453005      220.23141      0.5          
    293000  -688.03993     -236.18603      220.4672       0.5          
    294000  -830.61582      41.038437      216.88567      0.5          
    295000  -678.57871      2.8366282      217.25683      0.5          
    296000  -728.40281     -232.63037      219.4765       0.5          
    297000  -816.42787     -180.86612      215.33045      0.5          
    298000  -755.90276     -107.96623      218.94313      0.5          
    299000  -771.05436     -66.331032      220.30413      0.5          
    300000  -593.08502      121.11471      223.61335      0.5          
    301000  -723.44709     -195.82855      218.08533      0.5          
    302000  -647.52397      106.80099      221.04124      0.5          
    303000  -687.56566      51.397449      219.42768      0.5          
    304000  -670.72663     -227.431        218.6376       0.5          
    305000  -634.61007      87.066074      219.1482       0.5          
    306000  -661.48745      230.75183      218.34272      0.5          
    307000  -662.93592     -278.0128       217.39617      0.5          
    308000  -731.41906      141.43722      219.12762      0.5          
    309000  -656.63938      19.128796      218.02898      0.5          
    310000  -608.02592      13.769074      220.37716      0.5          
    311000  -684.52818      118.37729      218.21937      0.5          
    312000  -609.00005     -30.976799      219.4377       0.5          
    313000  -631.9615      -42.032907      220.00539      0.5          
    314000  -662.88378      99.906048      221.7867       0.5          
    315000  -500.61779     -130.13627      223.29837      0.5          
    316000  -587.57111     -75.791198      221.31572      0.5          
    317000  -546.35176      176.61714      224.5939       0.5          
    318000  -652.49873      56.399548      220.42525      0.5          
    319000  -623.25088     -164.76475      220.95676      0.5          
    320000  -607.49906      34.586064      221.59966      0.5          
    321000  -705.43208      91.999601      218.75564      0.5          
    322000  -669.56018      123.23264      220.33703      0.5          
    323000  -712.78491      184.03255      218.97123      0.5          
    324000  -613.67434      92.461388      221.95919      0.5          
    325000  -691.03704     -116.12034      217.82988      0.5          
    326000  -730.73393     -268.29861      217.29418      0.5          
    327000  -684.53943     -102.67414      218.51776      0.5          
    328000  -600.61631      86.200914      222.15375      0.5          
    329000  -664.03289     -384.2682       220.68993      0.5          
    330000  -677.39105     -178.83488      218.03294      0.5          
    331000  -587.05148      53.323724      222.61028      0.5          
    332000  -763.56575     -135.89091      219.08196      0.5          
    333000  -713.5781      -183.53971      217.97402      0.5          
    334000  -692.23828     -153.52702      218.23638      0.5          
    335000  -649.04329      166.13869      219.18279      0.5          
    336000  -573.42964      12.780523      222.32383      0.5          
    337000  -661.68812     -369.58506      221.78911      0.5          
    338000  -729.36698      190.1359       217.38058      0.5          
    339000  -495.07747      183.74585      222.50353      0.5          
    340000  -573.98488     -73.712876      220.93786      0.5          
    341000  -622.26295     -73.787936      220.34224      0.5          
    342000  -694.42515      102.15386      218.64666      0.5          
    343000  -683.62911      132.3005       218.42323      0.5          
    344000  -746.61598     -0.92806936     219.00295      0.5          
    345000  -599.86979     -319.56422      220.10536      0.5          
    346000  -568.00609      35.593196      223.79059      0.5          
    347000  -659.13312      80.199906      217.08719      0.5          
    348000  -682.99073     -196.15898      217.2481       0.5          
    349000  -820.14871      205.95089      215.09206      0.5          
    350000  -748.20463      50.014037      221.08654      0.5          
    351000  -780.7436      -26.113928      216.12158      0.5          
    352000  -823.91966      13.513055      217.42108      0.5          
    353000  -701.71913     -10.42111       221.90356      0.5          
    354000  -537.08706     -20.958246      223.84973      0.5          
    355000  -590.02145     -4.7992884      221.9218       0.5          
    356000  -613.80902      287.84786      221.67832      0.5          
    357000  -586.93714     -108.63082      220.20856      0.5          
    358000  -680.17102     -198.90111      221.09278      0.5          
    359000  -631.29235     -31.771169      221.41806      0.5          
    360000  -595.12863     -150.59199      219.13284      0.5          
    361000  -651.63166      160.13398      218.26777      0.5          
    362000  -587.6453      -10.295916      223.02081      0.5          
    363000  -638.842       -161.67343      222.6483       0.5          
    364000  -630.74654     -147.60108      223.05987      0.5          
    365000  -686.8111      -32.853345      219.69099      0.5          
    366000  -727.81026      114.65486      220.25929      0.5          
    367000  -795.49808      104.03044      218.74355      0.5          
    368000  -771.67452     -162.71048      219.23512      0.5          
    369000  -662.43133     -23.619324      217.3696       0.5          
    370000  -667.74381      260.43476      221.70225      0.5          
    371000  -585.23527      47.907188      223.25425      0.5          
    372000  -724.1846      -149.32108      218.55302      0.5          
    373000  -629.76305     -55.62859       218.18238      0.5          
    374000  -638.40155      26.310531      218.63551      0.5          
    375000  -543.36909      6.992432       221.53742      0.5          
    376000  -640.58487     -53.737453      221.15499      0.5          
    377000  -642.98803      110.06658      219.49429      0.5          
    378000  -674.72085     -66.512736      220.47244      0.5          
    379000  -627.75568      152.06165      219.6703       0.5          
    380000  -617.38286     -283.15176      220.24702      0.5          
    381000  -514.154        172.41552      222.15589      0.5          
    382000  -705.75383      57.393819      219.79175      0.5          
    383000  -629.17752     -70.997436      219.89651      0.5          
    384000  -600.23931      23.974355      221.08156      0.5          
    385000  -684.36255     -74.088149      217.23404      0.5          
    386000  -613.373        41.492901      221.49395      0.5          
    387000  -575.08374      127.32719      219.46183      0.5          
    388000  -628.28446     -217.46018      219.06172      0.5          
    389000  -714.47489      107.58749      220.42072      0.5          
    390000  -698.39723      189.80229      218.23215      0.5          
    391000  -569.4548      -243.52027      221.93114      0.5          
    392000  -666.43301      98.870125      219.63041      0.5          
    393000  -568.92704     -93.479785      222.58402      0.5          
    394000  -664.20344     -183.03595      220.36369      0.5          
    395000  -508.4458       14.724491      223.71325      0.5          
    396000  -671.10304     -8.2433457      219.7828       0.5          
    397000  -539.39312      42.935204      223.39692      0.5          
    398000  -726.21822     -122.82121      218.44399      0.5          
    399000  -675.14306     -175.22618      218.40241      0.5          
    400000  -517.1856      -182.75091      226.45914      0.5          
    401000  -583.24849      98.337826      217.03751      0.5          
    402000  -668.58782      152.91323      216.97827      0.5          
    403000  -666.2506       174.01969      218.91217      0.5          
    404000  -685.55192      89.72055       219.09985      0.5          
    405000  -686.40799      205.40657      221.1188       0.5          
    406000  -708.88223      209.85488      217.29755      0.5          
    407000  -668.51045     -61.97553       219.80129      0.5          
    408000  -616.276       -229.72475      219.35289      0.5          
    409000  -694.86176     -193.20952      220.12764      0.5          
    410000  -711.59799      177.11221      219.8453       0.5          
    411000  -730.44389      18.756667      220.32007      0.5          
    412000  -566.1556       16.619185      221.1956       0.5          
    413000  -595.65671      48.987828      223.00501      0.5          
    414000  -593.84757     -121.42762      220.04017      0.5          
    415000  -742.38636     -200.11266      214.98276      0.5          
    416000  -712.20241      75.971585      216.8653       0.5          
    417000  -657.13045      367.72822      220.1959       0.5          
    418000  -659.04587      21.54954       222.10372      0.5          
    419000  -637.31366     -354.25492      220.24111      0.5          
    420000  -630.82437     -178.87891      221.68694      0.5          
    421000  -687.91717      55.760103      219.87191      0.5          
    422000  -652.76334      0.11880008     218.07444      0.5          
    423000  -605.34292     -159.39675      221.85675      0.5          
    424000  -613.31055      131.14824      221.15648      0.5          
    425000  -587.20654      164.74382      223.83917      0.5          
    426000  -664.1901       219.25126      218.72877      0.5          
    427000  -659.72499     -293.30852      219.15469      0.5          
    428000  -762.46626     -291.91751      217.7846       0.5          
    429000  -605.75016      64.515257      222.34444      0.5          
    430000  -620.13132      443.84583      223.246        0.5          
    431000  -640.18442     -13.643822      222.24732      0.5          
    432000  -719.04825     -58.729874      218.67867      0.5          
    433000  -674.17158      221.46988      221.8473       0.5          
    434000  -769.99244      62.83003       218.33346      0.5          
    435000  -713.76728      234.20069      218.7398       0.5          
    436000  -689.38448      44.7079        221.18879      0.5          
    437000  -689.89629      1.2603496      220.68297      0.5          
    438000  -659.4014       169.43462      219.2622       0.5          
    439000  -627.24981      167.39362      218.25315      0.5          
    440000  -676.57114     -97.647286      218.94863      0.5          
    441000  -618.58546     -146.68914      222.32171      0.5          
    442000  -505.49892     -214.70406      222.77546      0.5          
    443000  -589.63459      341.29255      221.05169      0.5          
    444000  -516.31128      189.00011      221.86711      0.5          
    445000  -691.92713     -106.44726      220.31071      0.5          
    446000  -668.04092     -205.83267      218.63829      0.5          
    447000  -584.38691     -4.4092314      221.50039      0.5          
    448000  -730.88859      50.468313      217.47755      0.5          
    449000  -722.12384     -98.339458      217.34734      0.5          
    450000  -741.44856     -66.996791      218.36628      0.5          
    451000  -774.95004     -33.47495       217.11807      0.5          
    452000  -592.2905       19.991208      223.45628      0.5          
    453000  -566.46446     -190.09745      222.30979      0.5          
    454000  -674.94661      216.84282      219.88087      0.5          
    455000  -633.5028      -9.5321241      219.62993      0.5          
    456000  -627.0221      -340.90262      220.88504      0.5          
    457000  -623.74786      64.410317      221.13635      0.5          
    458000  -615.56272      19.814865      221.09936      0.5          
    459000  -734.60198     -273.96249      219.73196      0.5          
    460000  -695.30891     -20.270338      218.23452      0.5          
    461000  -746.56771      257.13868      220.11295      0.5          
    462000  -774.5938       86.563742      219.04074      0.5          
    463000  -635.99746      11.240828      222.95875      0.5          
    464000  -720.3859       70.920573      220.32093      0.5          
    465000  -655.67878      292.88241      222.11866      0.5          
    466000  -691.529        128.49519      219.13246      0.5          
    467000  -625.1614      -141.27875      216.94279      0.5          
    468000  -666.14132     -102.07399      220.14923      0.5          
    469000  -611.94841     -8.2232915      221.38918      0.5          
    470000  -550.06329     -189.35527      219.49352      0.5          
    471000  -529.18689     -285.40453      221.31302      0.5          
    472000  -639.39766      165.18416      218.57419      0.5          
    473000  -686.80919     -24.19732       217.01207      0.5          
    474000  -533.55426     -43.7664        223.17699      0.5          
    475000  -604.39502     -33.30099       219.21358      0.5          
    476000  -629.49704      66.648726      221.07916      0.5          
    477000  -680.73066     -35.36012       221.68742      0.5          
    478000  -638.76263      251.0827       221.23942      0.5          
    479000  -674.11925     -158.79282      218.88963      0.5          
    480000  -624.47014     -293.3695       219.68431      0.5          
    481000  -724.72191      97.246224      219.40025      0.5          
    482000  -579.664        173.52187      219.50136      0.5          
    483000  -649.37429     -15.331394      220.14368      0.5          
    484000  -650.58062     -246.03366      220.40984      0.5          
    485000  -674.591        143.43651      220.5986       0.5          
    486000  -578.60811     -46.049308      221.82466      0.5          
    487000  -588.47397     -44.773873      219.79144      0.5          
    488000  -599.93073     -54.820904      221.80376      0.5          
    489000  -707.93163      174.28409      217.17821      0.5          
    490000  -744.95057      52.131787      212.44443      0.5          
    491000  -651.20562     -118.60335      216.13961      0.5          
    492000  -607.47788     -19.461954      217.91027      0.5          
    493000  -604.38695      102.27231      220.83501      0.5          
    494000  -564.62636     -152.02767      220.05786      0.5          
    495000  -718.08767      44.163515      215.23896      0.5          
    496000  -670.13497      8.732293       219.88332      0.5          
    497000  -612.37375      138.58178      220.08928      0.5          
    498000  -581.70443      55.333546      221.2095       0.5          
    499000  -529.88682     -160.27138      223.45286      0.5          
    500000  -625.37042      171.2293       218.72858      0.5          
    501000  -702.22241      202.0779       219.49519      0.5          
    502000  -723.86502     -32.405631      220.86108      0.5          
    503000  -634.17165      186.4479       222.26188      0.5          
    504000  -730.93166     -103.55881      219.09205      0.5          
    505000  -626.12913     -82.865082      220.95492      0.5          
    506000  -521.50997      216.14511      222.33192      0.5          
    507000  -574.68592      278.10464      218.8734       0.5          
    508000  -556.17258      29.604925      220.07088      0.5          
    509000  -608.03973     -391.28368      217.11169      0.5          
    510000  -778.99409     -172.32174      214.82024      0.5          
    511000  -685.10813      234.69227      218.02176      0.5          
    512000  -592.90546     -24.218172      221.70093      0.5          
    513000  -581.42299     -91.767905      221.30181      0.5          
    514000  -753.39073     -29.767126      216.19229      0.5          
    515000  -683.85741      172.56985      219.98817      0.5          
    516000  -713.32865      288.73706      217.30748      0.5          
    517000  -678.73304     -162.87731      219.53787      0.5          
    518000  -736.86703     -186.56077      218.64666      0.5          
    519000  -706.54827      21.045128      219.14972      0.5          
    520000  -792.07384     -77.287323      217.02573      0.5          
    521000  -591.21763      240.06547      223.90023      0.5          
    522000  -668.52132     -62.198294      219.87409      0.5          
    523000  -625.22327     -100.65375      223.11515      0.5          
    524000  -757.40364     -116.24877      215.34124      0.5          
    525000  -617.20439      76.102537      219.38832      0.5          
    526000  -600.7638       318.42784      218.64711      0.5          
    527000  -518.50078     -1.360066       221.86937      0.5          
    528000  -620.68873     -207.11662      220.32901      0.5          
    529000  -682.14704     -110.27466      218.13791      0.5          
    530000  -666.84032      245.63902      219.80798      0.5          
    531000  -670.5058      -90.647402      219.09497      0.5          
    532000  -647.21689     -80.6278        219.9283       0.5          
    533000  -587.04558     -141.55771      224.28398      0.5          
    534000  -658.95871      90.529132      220.96713      0.5          
    535000  -659.79535      174.40085      220.86492      0.5          
    536000  -697.34994      179.8498       219.62256      0.5          
    537000  -617.54652      48.52747       223.43332      0.5          
    538000  -518.90201     -239.60557      223.99223      0.5          
    539000  -583.66607      92.047485      221.29609      0.5          
    540000  -586.7371       66.728883      221.76735      0.5          
    541000  -598.538       -4.4536322      219.32491      0.5          
    542000  -588.95118     -45.70854       219.76539      0.5          
    543000  -479.60282      60.596494      225.79596      0.5          
    544000  -614.90745      1.9930687      218.56636      0.5          
    545000  -479.10173      111.61454      224.22981      0.5          
    546000  -504.07087      143.14178      220.72409      0.5          
    547000  -570.025       -62.590734      221.16026      0.5          
    548000  -647.80902     -134.30184      217.05114      0.5          
    549000  -571.7666      -12.453862      221.336        0.5          
    550000  -633.30295     -159.46037      220.82446      0.5          
    551000  -691.58522     -273.42349      218.87358      0.5          
    552000  -551.90289      175.46316      220.8403       0.5          
    553000  -520.56789      50.033842      221.44672      0.5          
    554000  -520.86809     -440.97518      225.76272      0.5          
    555000  -560.9098      -78.421148      220.69014      0.5          
    556000  -660.64835      183.83088      217.90281      0.5          
    557000  -681.04971     -261.67445      218.68263      0.5          
    558000  -590.30937      266.58362      219.49015      0.5          
    559000  -623.18931      101.98038      221.10151      0.5          
    560000  -675.26961     -365.37486      219.48979      0.5          
    561000  -593.39567     -62.958814      222.14389      0.5          
    562000  -589.87602      321.38796      220.58158      0.5          
    563000  -566.50128     -113.09851      221.02801      0.5          
    564000  -592.82142      20.088756      221.29274      0.5          
    565000  -541.04492      159.318        222.28833      0.5          
    566000  -461.43978     -279.33336      223.38362      0.5          
    567000  -612.72505     -151.62917      216.34991      0.5          
    568000  -527.30238      333.87134      220.71819      0.5          
    569000  -551.49284     -148.75636      225.93397      0.5          
    570000  -539.87345     -93.744157      220.19285      0.5          
    571000  -570.47753      184.18126      217.60485      0.5          
    572000  -602.02381      128.19337      222.45609      0.5          
    573000  -560.12536     -320.3283       224.37126      0.5          
    574000  -558.31573     -39.64572       222.43955      0.5          
    575000  -600.24847      42.282329      221.73736      0.5          
    576000  -584.43668     -6.6528275      219.81308      0.5          
    577000  -596.12001      19.305398      219.89064      0.5          
    578000  -576.81726     -259.13126      221.02051      0.5          
    579000  -646.26966     -15.614181      218.22322      0.5          
    580000  -725.3251      -94.273728      218.6737       0.5          
    581000  -629.4697       98.106223      220.24649      0.5          
    582000  -655.74591     -18.453191      220.13193      0.5          
    583000  -652.06663     -26.15324       220.88464      0.5          
    584000  -685.26265     -19.82287       216.94932      0.5          
    585000  -574.5525       122.78789      221.43314      0.5          
    586000  -704.63183      56.778883      217.34555      0.5          
    587000  -632.96953     -7.7069189      219.49813      0.5          
    588000  -728.13362      164.4512       219.89869      0.5          
    589000  -610.54352     -135.47954      219.15897      0.5          
    590000  -727.53248     -209.27022      217.50336      0.5          
    591000  -617.52178     -36.26303       221.4278       0.5          
    592000  -626.98833      195.09486      222.58982      0.5          
    593000  -558.97439     -152.08637      220.90369      0.5          
    594000  -603.37699      120.10302      219.45014      0.5          
    595000  -463.03099      64.634156      220.86746      0.5          
    596000  -492.37268     -90.277789      219.88387      0.5          
    597000  -590.33938     -121.85314      220.00007      0.5          
    598000  -614.68        -68.682997      220.25257      0.5          
    599000  -459.24749     -91.435607      220.98009      0.5          
    600000  -589.02016      57.528214      221.40219      0.5          
    601000  -611.81651      215.33363      217.19667      0.5          
    602000  -567.4683       76.823761      221.57256      0.5          
    603000  -667.93681     -144.42414      215.90988      0.5          
    604000  -640.24272      166.29337      219.08229      0.5          
    605000  -505.29742      41.684154      221.3518       0.5          
    606000  -530.23952     -217.13085      221.03738      0.5          
    607000  -598.08843      509.12145      221.70815      0.5          
    608000  -698.23847     -48.290171      217.33075      0.5          
    609000  -719.30228      163.17664      219.27241      0.5          
    610000  -721.04437      161.31049      220.79171      0.5          
    611000  -704.61565      58.21441       220.69743      0.5          
    612000  -629.45481     -17.70852       221.17349      0.5          
    613000  -683.92235     -16.715931      217.85241      0.5          
    614000  -640.24325      128.11027      219.54821      0.5          
    615000  -569.77984      11.259134      220.87595      0.5          
    616000  -603.20253     -170.92799      220.83378      0.5          
    617000  -688.23451      109.76801      219.14815      0.5          
    618000  -636.51247     -430.98365      216.91583      0.5          
    619000  -662.45854     -225.35055      216.90205      0.5          
    620000  -612.45652      90.372367      221.23547      0.5          
    621000  -615.66329      144.87297      219.92603      0.5          
    622000  -589.29396      129.65599      220.96637      0.5          
    623000  -696.23007     -18.403174      219.03893      0.5          
    624000  -615.93496     -380.09491      220.02533      0.5          
    625000  -718.27414     -38.494272      219.4944       0.5          
    626000  -590.08821      184.58506      222.62249      0.5          
    627000  -652.6025      -100.83046      218.39015      0.5          
    628000  -618.89946      355.87071      218.57988      0.5          
    629000  -636.82291     -67.45689       220.7016       0.5          
    630000  -583.40835     -322.07235      220.76173      0.5          
    631000  -538.45405     -64.116986      219.88363      0.5          
    632000  -632.2911      -292.44826      217.58174      0.5          
    633000  -626.3797       110.00786      220.16095      0.5          
    634000  -527.41368      147.61417      220.2806       0.5          
    635000  -549.16646      29.934693      220.81516      0.5          
    636000  -698.09094      123.55946      215.29634      0.5          
    637000  -528.8446      -108.46629      221.17621      0.5          
    638000  -567.92395     -198.71396      220.88942      0.5          
    639000  -584.88187     -33.265835      220.63028      0.5          
    640000  -644.15874      19.32773       219.12975      0.5          
    641000  -523.60793      109.25975      224.11478      0.5          
    642000  -475.1385      -147.30455      220.53931      0.5          
    643000  -506.68292     -177.49895      223.36718      0.5          
    644000  -551.82877      189.72365      221.12715      0.5          
    645000  -488.0445      -144.32312      220.95458      0.5          
    646000  -526.99385     -198.23179      220.78349      0.5          
    647000  -505.09949     -63.683659      222.55398      0.5          
    648000  -575.31749      101.60189      218.62703      0.5          
    649000  -411.47141     -104.86853      221.34562      0.5          
    650000  -454.60165      0.74767232     220.40984      0.5          
    651000  -593.67211     -92.265369      218.95665      0.5          
    652000  -490.2427       92.106371      221.1513       0.5          
    653000  -701.57667     -83.333398      216.82592      0.5          
    654000  -621.31888      41.905711      220.3362       0.5          
    655000  -622.87592      18.746216      218.43289      0.5          
    656000  -537.04544      30.501599      221.63718      0.5          
    657000  -629.35895     -39.581782      218.93976      0.5          
    658000  -591.41948     -85.486223      220.09901      0.5          
    659000  -640.52804     -186.85193      218.49854      0.5          
    660000  -587.80533     -302.5714       218.58407      0.5          
    661000  -490.11864      38.625115      224.98731      0.5          
    662000  -575.33756      128.32913      218.10531      0.5          
    663000  -572.39519     -195.62494      220.28527      0.5          
    664000  -570.41825      72.517236      218.87237      0.5          
    665000  -549.30516      259.59231      220.69503      0.5          
    666000  -649.90924     -205.9662       217.49943      0.5          
    667000  -579.03971     -22.62387       223.10847      0.5          
    668000  -679.74326      189.75178      219.54938      0.5          
    669000  -673.10419      98.560306      220.07313      0.5          
    670000  -595.717       -204.18261      219.49514      0.5          
    671000  -670.45664     -190.56326      220.8741       0.5          
    672000  -701.12272      257.87911      219.88978      0.5          
    673000  -756.98465     -293.73307      218.66932      0.5          
    674000  -662.07489     -13.04233       222.12692      0.5          
    675000  -718.63337     -183.81072      219.15724      0.5          
    676000  -839.28277     -44.938303      219.1071       0.5          
    677000  -884.62609      41.555192      219.40552      0.5          
    678000  -756.64885     -45.805751      222.01374      0.5          
    679000  -837.69789     -128.15188      221.11316      0.5          
    680000  -856.47286      80.072234      219.49626      0.5          
    681000  -969.81423      134.34633      218.18136      0.5          
    682000  -944.13145     -246.77479      222.37008      0.5          
    683000  -1072.0077      178.52758      218.49866      0.5          
    684000  -1183.4721      47.004995      215.73389      0.5          
    685000  -1089.1156     -44.741857      221.9619       0.5          
    686000  -1202.7772      86.763566      218.6632       0.5          
    687000  -1175.3462      275.88063      216.68925      0.5          
    688000  -1229.7525      259.48254      215.96663      0.5          
    689000  -1088.5236      124.94182      223.00999      0.5          
    690000  -1148.9344      185.56377      222.49915      0.5          
    691000  -1150.8923      378.82693      221.36697      0.5          
    692000  -1289.6284     -139.73039      216.17968      0.5          
    693000  -1118.1848      31.706538      218.51409      0.5          
    694000  -1110.0129      9.5969027      221.89752      0.5          
    695000  -1086.2953      9.8116641      218.44773      0.5          
    696000  -923.1172       226.19093      222.27861      0.5          
    697000  -899.21935      208.19985      221.3987       0.5          
    698000  -977.28827     -105.33642      220.03805      0.5          
    699000  -885.33203      8.0658986      223.6561       0.5          
    700000  -909.51736     -24.885497      216.24861      0.5          
    701000  -759.30469     -169.96985      217.64716      0.5          
    702000  -723.74357      12.467223      220.14657      0.5          
    703000  -693.9715      -42.325048      221.4677       0.5          
    704000  -619.58994      22.133161      222.72436      0.5          
    705000  -780.82272      206.76         219.30327      0.5          
    706000  -684.37868     -134.57938      220.07237      0.5          
    707000  -703.94895     -198.379        218.856        0.5          
    708000  -676.59638     -229.49009      220.50994      0.5          
    709000  -612.32803     -2.2161863      222.53615      0.5          
    710000  -589.8939      -58.574515      219.34441      0.5          
    711000  -521.65701     -27.267352      223.65962      0.5          
    712000  -552.40029     -124.20881      220.83136      0.5          
    713000  -686.98691      131.27198      216.52881      0.5          
    714000  -591.62081     -58.9652        221.69627      0.5          
    715000  -665.11026     -277.97573      221.28785      0.5          
    716000  -722.77354     -238.06284      219.51943      0.5          
    717000  -686.44029     -1.9063404      221.9069       0.5          
    718000  -754.33286      187.34195      219.53303      0.5          
    719000  -844.52472      62.706204      217.53164      0.5          
    720000  -856.08097     -268.12137      217.51493      0.5          
    721000  -760.62339     -126.5131       219.7447       0.5          
    722000  -818.64546     -66.225947      223.02793      0.5          
    723000  -884.13774     -137.58213      219.12312      0.5          
    724000  -800.14011      2.9567108      221.01209      0.5          
    725000  -914.62451     -33.507185      219.83348      0.5          
    726000  -951.25949      21.34065       219.31228      0.5          
    727000  -1011.5583      92.286156      217.80955      0.5          
    728000  -996.19999      41.402316      218.45267      0.5          
    729000  -880.4155       285.88532      221.83817      0.5          
    730000  -1007.311       115.72065      218.79559      0.5          
    731000  -971.73843      88.265934      220.52911      0.5          
    732000  -1158.3204      29.701418      215.56644      0.5          
    733000  -967.1468       382.61393      221.34933      0.5          
    734000  -905.58655      348.69109      221.26826      0.5          
    735000  -958.66621     -99.516549      219.7553       0.5          
    736000  -884.92353      73.510886      221.03087      0.5          
    737000  -896.8544       292.70173      222.54084      0.5          
    738000  -927.91498     -102.19394      217.54515      0.5          
    739000  -914.77755     -51.847142      219.51084      0.5          
    740000  -868.02236      207.97414      218.43242      0.5          
    741000  -931.31231     -47.322771      216.0106       0.5          
    742000  -685.90226      75.589412      222.63217      0.5          
    743000  -747.93411     -110.61038      220.34069      0.5          
    744000  -813.94228      96.363637      218.15339      0.5          
    745000  -760.63266      139.20449      219.76914      0.5          
    746000  -574.77674     -261.17342      224.41332      0.5          
    747000  -701.43104     -87.117903      216.8426       0.5          
    748000  -741.46869      288.42063      218.28995      0.5          
    749000  -706.38043     -19.13888       221.60797      0.5          
    750000  -662.28806     -197.94165      219.72523      0.5          
    751000  -688.53832     -258.08137      218.40394      0.5          
    752000  -583.88287     -86.106363      222.65652      0.5          
    753000  -797.97308      140.13707      217.83075      0.5          
    754000  -863.82942      12.382759      216.31098      0.5          
    755000  -685.68462     -194.24915      222.14545      0.5          
    756000  -840.01174     -40.69075       215.75716      0.5          
    757000  -775.09059      100.89594      219.62375      0.5          
    758000  -806.23691     -139.72643      218.89556      0.5          
    759000  -637.86732      93.775851      226.85488      0.5          
    760000  -749.46929     -26.732449      223.92792      0.5          
    761000  -786.19788     -60.24478       218.40217      0.5          
    762000  -707.36762      92.734336      224.19045      0.5          
    763000  -788.65016      132.2315       222.25405      0.5          
    764000  -787.3993      -29.162036      223.85737      0.5          
    765000  -884.74517     -59.219469      219.67895      0.5          
    766000  -929.91783      13.12542       219.20393      0.5          
    767000  -906.37686      70.532076      217.59843      0.5          
    768000  -848.84307      188.33813      219.81068      0.5          
    769000  -816.09966     -115.99518      219.93281      0.5          
    770000  -932.41705      68.947895      219.34591      0.5          
    771000  -808.09985     -43.604391      223.21459      0.5          
    772000  -886.77266     -68.125736      218.58738      0.5          
    773000  -792.07258      41.040972      222.2486       0.5          
    774000  -961.44664      123.13746      217.82287      0.5          
    775000  -869.19985      111.30394      219.17685      0.5          
    776000  -876.98174     -9.2056689      220.38904      0.5          
    777000  -853.3497       114.90302      218.47473      0.5          
    778000  -844.93913     -60.46226       218.8107       0.5          
    779000  -810.50697      11.038095      220.1961       0.5          
    780000  -802.42953      167.04863      219.01179      0.5          
    781000  -785.97145      139.57959      220.73041      0.5          
    782000  -820.63843     -97.522225      217.95053      0.5          
    783000  -758.4962      -17.764549      221.98303      0.5          
    784000  -857.70628      339.27974      218.63896      0.5          
    785000  -863.26446     -133.08928      221.05045      0.5          
    786000  -730.56071     -65.322417      219.93         0.5          
    787000  -866.25392      122.58605      218.03044      0.5          
    788000  -770.94641      49.842973      222.5886       0.5          
    789000  -759.28035     -77.901693      220.83173      0.5          
    790000  -870.35789      104.96503      221.68212      0.5          
    791000  -812.75273      253.45044      217.67035      0.5          
    792000  -763.83536     -177.07277      218.28469      0.5          
    793000  -699.73495     -285.4001       222.31976      0.5          
    794000  -674.81859      3.1514346      222.68486      0.5          
    795000  -748.08036      15.716813      219.02209      0.5          
    796000  -676.00557     -89.811197      223.27078      0.5          
    797000  -787.86727     -121.06763      219.90337      0.5          
    798000  -686.97769     -46.483691      222.27155      0.5          
    799000  -795.76537      45.57741       217.74716      0.5          
    800000  -719.17068      204.21991      220.35569      0.5          
    801000  -799.98451      106.11063      222.45184      0.5          
    802000  -654.60243     -55.187004      222.22172      0.5          
    803000  -814.42856     -42.692476      221.70205      0.5          
    804000  -829.15857      82.440596      218.48348      0.5          
    805000  -829.61143      145.03772      218.02319      0.5          
    806000  -858.04395     -317.15588      217.69515      0.5          
    807000  -905.56379     -134.19805      221.02785      0.5          
    808000  -858.03754     -43.453397      221.07724      0.5          
    809000  -825.63345      107.5856       220.33332      0.5          
    810000  -1014.7802     -46.471341      215.0522       0.5          
    811000  -847.90576     -13.683212      219.60103      0.5          
    812000  -856.17536      261.84901      223.6564       0.5          
    813000  -821.81653     -226.8347       221.76931      0.5          
    814000  -861.88889      35.286477      218.78792      0.5          
    815000  -807.99812      320.7063       220.00555      0.5          
    816000  -877.38773      84.357231      215.76084      0.5          
    817000  -971.94016     -223.28762      217.09089      0.5          
    818000  -757.24898     -87.094447      220.58791      0.5          
    819000  -901.23968     -317.63268      218.0131       0.5          
    820000  -896.5583       84.492761      218.37928      0.5          
    821000  -961.05117      74.552164      218.29186      0.5          
    822000  -831.50155     -37.288624      221.26583      0.5          
    823000  -888.6924       108.26815      219.23635      0.5          
    824000  -896.47393     -55.165871      220.21995      0.5          
    825000  -935.45216      112.95852      220.49641      0.5          
    826000  -724.2663       18.36817       224.99647      0.5          
    827000  -865.8864      -115.03671      219.11687      0.5          
    828000  -849.93883      17.613141      219.6742       0.5          
    829000  -824.95334      73.965155      220.90058      0.5          
    830000  -890.56277     -80.273268      220.99098      0.5          
    831000  -834.15837     -31.26103       219.31086      0.5          
    832000  -856.91127      19.499665      220.33527      0.5          
    833000  -797.40773      151.77844      222.46001      0.5          
    834000  -808.0596       30.694966      220.70053      0.5          
    835000  -904.63027     -103.4644       218.06527      0.5          
    836000  -884.82238      107.69821      219.61693      0.5          
    837000  -990.82678     -202.96036      214.59996      0.5          
    838000  -793.07198     -160.50238      222.61432      0.5          
    839000  -868.46444      196.52629      218.26948      0.5          
    840000  -860.66488      43.131639      216.76641      0.5          
    841000  -724.62507     -290.2215       222.84978      0.5          
    842000  -861.55563      98.052164      217.22406      0.5          
    843000  -825.77878      175.40161      221.34568      0.5          
    844000  -772.35641     -73.810455      222.98842      0.5          
    845000  -804.08878      153.77467      222.13062      0.5          
    846000  -849.59344     -20.917949      221.05152      0.5          
    847000  -925.62686     -256.72361      215.32212      0.5          
    848000  -849.66504      164.8287       223.94817      0.5          
    849000  -809.15499      135.43854      222.2338       0.5          
    850000  -870.37272     -58.700385      218.92659      0.5          
    851000  -735.49605     -79.411968      223.39058      0.5          
    852000  -721.17729     -59.441017      222.65459      0.5          
    853000  -772.48486      109.11738      218.05715      0.5          
    854000  -839.82594     -185.08132      219.64671      0.5          
    855000  -767.62211     -126.61303      221.03991      0.5          
    856000  -836.63284     -280.16962      217.42713      0.5          
    857000  -796.52853      49.598142      219.88588      0.5          
    858000  -691.30297      13.685223      220.92692      0.5          
    859000  -932.03085      73.009716      215.61666      0.5          
    860000  -889.80828      22.18506       215.75088      0.5          
    861000  -697.76281     -74.238529      219.92241      0.5          
    862000  -753.75968     -66.420875      219.07438      0.5          
    863000  -727.63938      18.363222      219.76845      0.5          
    864000  -708.49551     -51.480757      219.53216      0.5          
    865000  -681.88071     -29.43019       221.71311      0.5          
    866000  -703.45955     -117.53543      218.60526      0.5          
    867000  -623.81549     -65.351367      222.87778      0.5          
    868000  -747.68154      2.4419674      222.76464      0.5          
    869000  -704.60176      64.310599      223.15954      0.5          
    870000  -694.5767      -58.782482      223.45818      0.5          
    871000  -709.90123      224.69355      220.18441      0.5          
    872000  -732.8435       8.8127097      221.34751      0.5          
    873000  -829.03295     -55.646339      219.49016      0.5          
    874000  -736.65051      84.799585      221.71465      0.5          
    875000  -870.90236      161.50067      219.30739      0.5          
    876000  -839.4977      -68.821046      221.56906      0.5          
    877000  -815.20188     -338.39311      222.37021      0.5          
    878000  -926.59984      193.2033       218.57225      0.5          
    879000  -861.89634      58.30456       219.40956      0.5          
    880000  -901.45215     -307.1441       219.38731      0.5          
    881000  -923.89488     -54.710754      218.83746      0.5          
    882000  -830.80624      47.213126      218.15515      0.5          
    883000  -728.55695      262.09454      222.42743      0.5          
    884000  -801.99605     -2.966655       220.95463      0.5          
    885000  -840.41965      88.680524      221.80106      0.5          
    886000  -792.86094     -11.446199      220.65718      0.5          
    887000  -765.71613     -71.353281      220.12624      0.5          
    888000  -792.78987     -4.5274448      221.61122      0.5          
    889000  -818.18779      111.9433       219.15566      0.5          
    890000  -859.30829     -170.05108      219.3765       0.5          
    891000  -782.75011     -8.049106       221.49343      0.5          
    892000  -900.44811      204.08584      215.39396      0.5          
    893000  -805.27195      94.238169      216.63166      0.5          
    894000  -808.34163     -138.42167      220.85238      0.5          
    895000  -926.14875     -24.527605      219.34363      0.5          
    896000  -862.90802     -74.590953      216.89382      0.5          
    897000  -658.45556      19.446623      219.48611      0.5          
    898000  -770.51651      127.3683       222.46056      0.5          
    899000  -736.57064     -77.22895       223.51411      0.5          
    900000  -762.7713       255.31002      220.6653       0.5          
    901000  -798.0552       102.87296      218.76727      0.5          
    902000  -733.28345     -14.850412      219.36098      0.5          
    903000  -837.76276      7.5362825      218.59035      0.5          
    904000  -841.4073       247.53255      218.70618      0.5          
    905000  -784.61893      38.669043      222.56455      0.5          
    906000  -813.45011     -140.76737      219.8417       0.5          
    907000  -783.76386      50.031974      218.94566      0.5          
    908000  -792.81466     -193.18937      219.55553      0.5          
    909000  -810.91192     -48.105213      220.60148      0.5          
    910000  -745.31748      111.27534      220.60954      0.5          
    911000  -767.03792      137.91986      222.6732       0.5          
    912000  -871.13329      75.821251      218.84964      0.5          
    913000  -765.12924      244.98086      221.36412      0.5          
    914000  -814.28808     -9.1868889      221.0287       0.5          
    915000  -781.25373     -128.18155      220.94679      0.5          
    916000  -783.42075      217.39479      220.66867      0.5          
    917000  -847.10588     -159.52083      219.1423       0.5          
    918000  -916.88294     -439.25462      218.52487      0.5          
    919000  -800.81479     -71.176821      218.72293      0.5          
    920000  -876.92589      67.378234      219.82584      0.5          
    921000  -728.90535      118.2469       218.52124      0.5          
    922000  -720.79758      49.474136      221.94317      0.5          
[...]
   3752000  -682.13505     -263.85024      217.82071      0.5          
   3753000  -681.81959     -38.224838      220.64903      0.5          
   3754000  -682.04898      181.46434      219.57773      0.5          
   3755000  -682.10736     -136.05918      222.45097      0.5          
   3756000  -682.222       -37.7384        221.87332      0.5          
   3757000  -682.08757      170.74891      219.11803      0.5          
   3758000  -681.98848      59.72132       219.8383       0.5          
   3759000  -681.98947     -35.500696      217.24729      0.5          
   3760000  -682.37375     -134.85381      218.89989      0.5          
   3761000  -682.30652      55.342794      220.53854      0.5          
   3762000  -682.23632     -29.710804      217.13221      0.5          
   3763000  -681.86028     -135.31602      217.97749      0.5          
   3764000  -682.19457     -52.277151      218.77767      0.5          
   3765000  -682.07567     -297.89901      218.33534      0.5          
   3766000  -682.0076      -128.33415      218.38242      0.5          
   3767000  -682.11349      15.573183      218.03941      0.5          
   3768000  -682.00277     -134.67151      217.26692      0.5          
   3769000  -682.4655      -146.92512      219.76636      0.5          
   3770000  -681.95426      222.17238      220.14566      0.5          
   3771000  -682.34931     -109.15756      218.2287       0.5          
   3772000  -682.39998     -189.63169      218.8995       0.5          
   3773000  -682.13823      64.801733      218.64227      0.5          
   3774000  -682.01577      130.83         219.44935      0.5          
   3775000  -682.33463      29.592955      218.34023      0.5          
   3776000  -682.40729     -98.474882      218.46584      0.5          
   3777000  -682.28869      52.223789      219.86562      0.5          
   3778000  -682.13888     -181.66381      219.47501      0.5          
   3779000  -682.41153     -184.58642      220.92029      0.5          
   3780000  -682.20872     -192.3955       218.73883      0.5          
   3781000  -682.47072      208.96248      218.72434      0.5          
   3782000  -682.02252     -120.37437      219.72122      0.5          
   3783000  -681.84105     -103.5974       220.59073      0.5          
   3784000  -681.85016      5.3432821      217.88103      0.5          
   3785000  -682.16045      346.66092      219.57029      0.5          
   3786000  -681.88248      110.23282      222.42518      0.5          
   3787000  -681.67428     -171.20897      221.26506      0.5          
   3788000  -681.49341      18.0157        215.37562      0.5          
   3789000  -681.6472      -80.877862      219.45594      0.5          
   3790000  -681.69491     -147.88961      218.73894      0.5          
   3791000  -681.43061      224.67316      221.33293      0.5          
   3792000  -681.54888     -68.40724       220.96618      0.5          
   3793000  -681.29269     -40.702495      220.02907      0.5          
   3794000  -681.7364       25.614827      218.29008      0.5          
   3795000  -681.61539      26.406265      217.8561       0.5          
   3796000  -682.10963     -113.05604      220.37662      0.5          
   3797000  -682.05513      220.79129      219.83621      0.5          
   3798000  -681.73242      156.0898       217.47305      0.5          
   3799000  -681.88913     -183.98089      216.90107      0.5          
   3800000  -681.85562      16.879552      218.25878      0.5          
   3801000  -681.86089     -2.3722736      217.37787      0.5          
   3802000  -681.75304      60.667498      217.9127       0.5          
   3803000  -682.06204      27.254703      217.87854      0.5          
   3804000  -682.00145     -98.718375      219.19163      0.5          
   3805000  -681.72441     -97.606947      218.87657      0.5          
   3806000  -681.65583      74.793781      216.74232      0.5          
   3807000  -681.60551      3.9276813      219.05492      0.5          
   3808000  -681.96967      2.034596       216.91758      0.5          
   3809000  -681.6926       106.84867      217.58395      0.5          
   3810000  -681.48403     -118.81898      218.62104      0.5          
   3811000  -681.61497     -289.5477       218.36864      0.5          
   3812000  -681.83819      16.356941      219.44109      0.5          
   3813000  -681.81233      214.68798      214.92878      0.5          
   3814000  -681.60121     -53.123857      218.88046      0.5          
   3815000  -681.35985     -72.725336      218.90744      0.5          
   3816000  -681.88809     -195.96252      219.46056      0.5          
   3817000  -681.68954     -31.496859      219.38807      0.5          
   3818000  -681.42836      320.04191      221.38503      0.5          
   3819000  -681.38135      46.966856      220.62896      0.5          
   3820000  -681.55646     -171.09737      220.80869      0.5          
   3821000  -681.80336      51.105333      222.60539      0.5          
   3822000  -681.67726      33.610902      223.16491      0.5          
   3823000  -681.30504     -230.65042      219.04008      0.5          
   3824000  -681.26423      23.464156      219.2415       0.5          
   3825000  -681.65013      152.38144      222.18963      0.5          
   3826000  -681.59255     -214.63661      221.08597      0.5          
   3827000  -681.21717      263.34531      221.4321       0.5          
   3828000  -681.13921      79.672704      218.69276      0.5          
   3829000  -681.29825     -371.87854      220.41152      0.5          
   3830000  -681.32955      72.956621      221.51183      0.5          
   3831000  -680.9643       72.10866       218.03169      0.5          
   3832000  -680.78229     -70.608575      214.59515      0.5          
   3833000  -681.28866      63.496358      218.90629      0.5          
   3834000  -681.40124     -58.945605      221.21391      0.5          
   3835000  -681.12345     -16.022223      219.63875      0.5          
   3836000  -680.9587       48.234032      219.77642      0.5          
   3837000  -681.12477     -218.89822      218.9484       0.5          
   3838000  -681.1893      -124.70801      217.51516      0.5          
   3839000  -681.28632     -144.74714      223.00121      0.5          
   3840000  -681.15395      137.72534      221.1359       0.5          
   3841000  -680.985        103.91773      216.70183      0.5          
   3842000  -681.20257     -242.41         218.78347      0.5          
   3843000  -681.19075     -141.73231      217.82017      0.5          
   3844000  -681.07667      140.99425      219.20478      0.5          
   3845000  -680.99389     -97.96288       219.98673      0.5          
   3846000  -680.76832     -53.807418      216.70636      0.5          
   3847000  -681.21168      17.295175      221.93277      0.5          
   3848000  -681.38569     -114.99783      219.21129      0.5          
   3849000  -681.19724     -14.206851      218.19451      0.5          
   3850000  -680.84506      166.25255      218.52903      0.5          
   3851000  -680.79013     -293.00583      217.91767      0.5          
   3852000  -680.8609      -246.99982      219.90895      0.5          
   3853000  -680.75613      175.04188      218.02666      0.5          
   3854000  -681.15881     -78.544336      219.71074      0.5          
   3855000  -680.90281      25.986037      217.88624      0.5          
   3856000  -680.60294      198.43566      215.26869      0.5          
   3857000  -681.0453      -45.810495      223.70618      0.5          
   3858000  -681.30903     -81.451861      221.02844      0.5          
   3859000  -680.95304      65.594751      222.43972      0.5          
   3860000  -680.64996     -137.21909      220.56016      0.5          
   3861000  -680.77919     -2.6739981      223.18482      0.5          
   3862000  -680.67532      209.28934      220.4755       0.5          
   3863000  -680.81417      219.39769      216.31844      0.5          
   3864000  -680.88346      20.201004      219.67718      0.5          
   3865000  -680.82305      20.688579      219.92701      0.5          
   3866000  -680.99159      53.16306       221.56761      0.5          
   3867000  -680.85888      431.92794      216.86521      0.5          
   3868000  -680.78364      1.9070704      219.46446      0.5          
   3869000  -680.70195     -95.00733       216.86431      0.5          
   3870000  -680.84846      333.82139      220.79289      0.5          
   3871000  -680.91468      13.926208      221.00544      0.5          
   3872000  -680.95685     -106.61078      222.02349      0.5          
   3873000  -681.06704      322.3227       219.29757      0.5          
   3874000  -680.81178      44.965127      219.76975      0.5          
   3875000  -680.79938     -22.453855      221.99391      0.5          
   3876000  -680.87596     -53.328499      221.04866      0.5          
   3877000  -681.17286     -62.268667      218.54776      0.5          
   3878000  -680.85409      123.41774      219.78726      0.5          
   3879000  -681.01491     -94.407468      216.87956      0.5          
   3880000  -680.9939      -215.1937       218.67422      0.5          
   3881000  -681.00226     -53.13879       218.02811      0.5          
   3882000  -681.36629      80.735276      221.23738      0.5          
   3883000  -681.39384      39.61168       218.49834      0.5          
   3884000  -681.19961     -106.43789      216.76224      0.5          
   3885000  -680.96142     -304.23558      216.61822      0.5          
   3886000  -681.32775      221.20692      219.56678      0.5          
   3887000  -681.23252      118.09306      218.63178      0.5          
   3888000  -681.14095     -315.49627      217.95448      0.5          
   3889000  -681.02985     -299.14069      218.83293      0.5          
   3890000  -681.25587      108.50573      216.9976       0.5          
   3891000  -681.58697     -125.84069      222.26447      0.5          
   3892000  -681.27451      41.316257      218.44296      0.5          
   3893000  -681.31223     -33.479035      220.16149      0.5          
   3894000  -681.31407     -55.824429      217.76214      0.5          
   3895000  -681.31084      59.886781      221.59276      0.5          
   3896000  -681.4326      -250.65646      221.8041       0.5          
   3897000  -681.31506      73.012231      218.95464      0.5          
   3898000  -681.38225      382.79209      219.38338      0.5          
   3899000  -681.37581      5.7572338      217.88697      0.5          
   3900000  -681.42983     -53.515545      220.61808      0.5          
   3901000  -681.09639      49.249619      218.48115      0.5          
   3902000  -681.07621     -0.82636362     220.99317      0.5          
   3903000  -680.95652     -69.465083      220.10597      0.5          
   3904000  -681.01661      118.23786      220.36153      0.5          
   3905000  -681.28191     -91.245952      221.57022      0.5          
   3906000  -681.13974     -120.80431      219.40039      0.5          
   3907000  -681.06513     -97.009851      217.25595      0.5          
   3908000  -680.96208      430.06628      219.08281      0.5          
   3909000  -681.25101     -255.22872      219.2222       0.5          
   3910000  -681.21127      12.888615      220.10406      0.5          
   3911000  -681.09442      150.79372      218.31315      0.5          
   3912000  -681.20535      104.32287      220.2819       0.5          
   3913000  -681.39897     -65.425055      219.54794      0.5          
   3914000  -681.45794     -354.69811      218.50174      0.5          
   3915000  -681.35168     -249.58286      219.12203      0.5          
   3916000  -681.14031      356.8377       219.12942      0.5          
   3917000  -681.32445     -153.97869      218.76308      0.5          
   3918000  -681.32598     -174.84279      221.18187      0.5          
   3919000  -681.30266     -43.853301      221.53832      0.5          
   3920000  -681.20628      160.02577      218.97762      0.5          
   3921000  -681.16631      133.22975      220.74412      0.5          
   3922000  -681.27493     -85.762227      219.14492      0.5          
   3923000  -681.18187     -108.06265      220.40526      0.5          
   3924000  -680.94746      215.20776      218.33832      0.5          
   3925000  -680.85751      120.95904      217.85179      0.5          
   3926000  -681.23458      136.74036      218.98798      0.5          
   3927000  -681.18966     -105.05749      221.04041      0.5          
   3928000  -680.93072     -42.784411      216.11451      0.5          
   3929000  -680.78047      147.3093       217.95235      0.5          
   3930000  -681.005       -45.6202        219.29941      0.5          
   3931000  -681.24127     -70.088207      221.76537      0.5          
   3932000  -681.16405      223.51548      219.74668      0.5          
   3933000  -680.97226      63.172594      220.14102      0.5          
   3934000  -680.88363     -149.02643      220.2439       0.5          
   3935000  -681.05554      53.322985      220.58051      0.5          
   3936000  -681.09428      142.46771      220.39465      0.5          
   3937000  -681.13339     -107.94674      218.9144       0.5          
   3938000  -681.01971     -93.566348      219.21976      0.5          
   3939000  -681.28263     -131.98102      219.17949      0.5          
   3940000  -681.33631      107.81477      220.18872      0.5          
   3941000  -680.93339      203.94047      221.69919      0.5          
   3942000  -680.88426     -97.892275      219.49478      0.5          
   3943000  -680.96427     -11.227422      220.65523      0.5          
   3944000  -680.98048      125.84254      221.08167      0.5          
   3945000  -681.42713     -68.565764      221.93549      0.5          
   3946000  -680.8955      -272.66966      220.50767      0.5          
   3947000  -680.99724      3.4494411      222.51306      0.5          
   3948000  -681.08919      102.26585      218.28593      0.5          
   3949000  -681.31584      111.86323      221.44253      0.5          
   3950000  -681.08464     -112.14684      220.84189      0.5          
   3951000  -680.77045      33.551915      220.60281      0.5          
   3952000  -680.87298      241.52792      219.33667      0.5          
   3953000  -681.09034     -25.211121      222.61259      0.5          
   3954000  -681.06876     -40.486015      221.5999       0.5          
   3955000  -681.02775      32.155889      220.668        0.5          
   3956000  -680.74788      218.45282      222.46459      0.5          
   3957000  -680.76209      223.82038      218.31826      0.5          
   3958000  -680.76884      49.571248      222.60194      0.5          
   3959000  -680.87466     -170.69939      220.1084       0.5          
   3960000  -680.68484      0.48584307     220.64278      0.5          
   3961000  -680.67162     -122.32963      217.4939       0.5          
   3962000  -680.69079     -85.628817      218.89423      0.5          
   3963000  -680.57641      140.7282       218.62266      0.5          
   3964000  -680.642       -71.57419       220.74944      0.5          
   3965000  -680.93171     -86.0746        216.88352      0.5          
   3966000  -680.85368     -56.630081      218.73608      0.5          
   3967000  -681.13499     -119.1588       217.59264      0.5          
   3968000  -680.90891      21.75623       217.28208      0.5          
   3969000  -681.03869     -219.5979       217.84225      0.5          
   3970000  -681.02425     -205.53345      217.28814      0.5          
   3971000  -681.19511      89.202646      216.15819      0.5          
   3972000  -681.50011     -148.11401      216.40522      0.5          
   3973000  -681.18206     -384.28448      220.44417      0.5          
   3974000  -680.89376      151.76593      218.56499      0.5          
   3975000  -680.95719     -12.680788      217.20615      0.5          
   3976000  -681.11664     -158.73682      217.94732      0.5          
   3977000  -681.23824     -10.486183      219.78502      0.5          
   3978000  -681.1554       100.47253      220.86261      0.5          
   3979000  -680.85269      55.42178       217.93425      0.5          
   3980000  -681.28416      93.715142      220.22362      0.5          
   3981000  -681.25168     -102.40161      221.08954      0.5          
   3982000  -681.49467     -221.3153       219.76868      0.5          
   3983000  -681.47052     -73.424662      219.02091      0.5          
   3984000  -681.22494      92.226768      221.95397      0.5          
   3985000  -681.11125      224.4548       222.45428      0.5          
   3986000  -681.11961      0.98350095     220.97325      0.5          
   3987000  -681.188       -187.15195      223.24164      0.5          
   3988000  -680.78941     -296.66325      218.73659      0.5          
   3989000  -680.9205       171.68244      221.54772      0.5          
   3990000  -681.32702      119.93143      221.09067      0.5          
   3991000  -681.28006      34.225473      224.00238      0.5          
   3992000  -681.10934      156.90173      221.26895      0.5          
   3993000  -680.99633     -87.167981      220.31652      0.5          
   3994000  -681.39746     -124.83316      221.4969       0.5          
   3995000  -680.93925      46.596638      221.33327      0.5          
   3996000  -680.97136     -94.101004      222.27166      0.5          
   3997000  -680.84589     -234.34875      217.91614      0.5          
   3998000  -681.04257      4.0523196      220.82705      0.5          
   3999000  -681.07832      155.27753      222.36013      0.5          
   4000000  -680.78508      85.869731      222.68361      0.5          
Loop time of 8213.17 on 16 procs for 2000000 steps with 7050 atoms

Performance: 10.520 ns/day, 2.281 hours/ns, 243.511 timesteps/s, 1.717 Matom-step/s
99.4% CPU use with 16 MPI tasks x 1 OpenMP threads

MPI task timing breakdown:
Section |  min time  |  avg time  |  max time  |%varavg| %total
---------------------------------------------------------------
Pair    | 3571.8     | 5391.4     | 6361.8     |1343.8 | 65.64
Bond    | 24.159     | 25.338     | 26.369     |  12.5 |  0.31
Kspace  | 1248.2     | 2314.6     | 4162.3     |2105.6 | 28.18
Neigh   | 52.399     | 52.685     | 53.06      |   2.6 |  0.64
Comm    | 256        | 336.96     | 450.48     | 329.6 |  4.10
Output  | 0.49411    | 0.57333    | 1.6909     |  38.1 |  0.01
Modify  | 68.664     | 81.309     | 105.03     | 148.0 |  0.99
Other   |            | 10.34      |            |       |  0.13

Nlocal:        440.625 ave         471 max         412 min
Histogram: 2 2 0 2 2 4 0 1 1 2
Nghost:        6284.44 ave        7499 max        5073 min
Histogram: 8 0 0 0 0 0 0 0 0 8
Neighs:         192509 ave      221512 max      133590 min
Histogram: 2 2 0 0 0 0 0 2 6 4

Total # of neighbors = 3080139
Ave neighs/atom = 436.89915
Ave special neighs/atom = 2
Neighbor list builds = 8180
Dangerous builds = 0

unfix           COM_DRIFT
unfix           NVE
unfix           CPU_BALANCE
unfix           dens_profile
unfix           1
unfix           2
unfix           3

write_data      ${NAME}_final.data
write_data      CO2_final.data
System init for write_data ...
PPPM initialization ...
  using 12-bit tables for long-range coulomb (src/kspace.cpp:342)
  G vector (1/distance) = 0.20169663
  grid = 24 24 80
  stencil order = 5
  estimated absolute RMS force accuracy = 0.00286774
  estimated relative force accuracy = 8.6361139e-06
  using single precision FFTW3
  3d grid and FFT values/proc = 19855 6912
Generated 1 of 1 mixed pair_coeff terms from arithmetic mixing rule
Last active /omp style is kspace_style pppm/omp
reset_timestep  0

quit
