LAMMPS data file via write_data, version 29 Aug 2024, timestep = 4000000, units = real

7050 atoms
2 atom types
4700 bonds
1 bond types
2350 angles
1 angle types

0 40 xlo xhi
0 40 ylo yhi
0 240 zlo zhi

Masses

1 12.0107
2 15.9994

Pair Coeffs # lj/cut/coul/long/omp

1 0.0536545 2.8
2 0.156989 3.05

Bond Coeffs # harmonic/omp

1 1028.27 1.16

Angle Coeffs # harmonic/omp

1 55.96 180

Atoms # full

6763 2255 1 0.7 4.13572485575201 3.3734799342273463 2.3395121374635046 1 0 1
6765 2255 2 -0.35 4.057173599414483 2.297858097084874 1.9078625064283479 1 0 1
6764 2255 2 -0.35 4.1804369886077035 4.429374959955194 2.82173867117338 1 0 1
792 264 2 -0.35 7.015719596228854 6.207125166051158 7.161656744545272 1 -1 0
3565 1189 1 0.7 3.8389002530607863 7.9273903161145265 4.440241956743424 0 1 0
3567 1189 2 -0.35 4.285322830546104 8.784458223534823 3.7989656423530596 0 1 0
5785 1929 1 0.7 2.6260960261209183 9.100958604703063 1.3563367560075004 9 2 1
5230 1744 1 0.7 6.352545263182167 7.685498227144408 10.101244538295617 1 1 1
5231 1744 2 -0.35 7.1101577985806985 6.8859319185885814 10.479385169544477 1 1 1
3324 1108 2 -0.35 2.295537736460677 6.827801280314979 10.656714352462899 -1 0 1
3322 1108 1 0.7 2.146205957613411 7.84049312275314 11.228045877096436 -1 0 1
3581 1194 2 -0.35 4.114657714824234 3.250374178558071 9.144951326778859 0 1 0
3580 1194 1 0.7 3.932842711372598 4.231682044547167 8.556073850108303 0 1 0
3566 1189 2 -0.35 3.355189410312156 7.07477829736447 5.119281040225176 0 1 0
5232 1744 2 -0.35 5.453927643035517 8.338739087058357 9.73530307056619 1 1 1
129 43 2 -0.35 7.984628004858212 2.7744985420279473 11.018635969512921 0 1 0
3582 1194 2 -0.35 3.7676603559969375 5.263326836177557 8.071094155538695 0 1 0
5786 1929 2 -0.35 3.0361009247858197 8.213899141648923 0.6791836356179494 9 2 1
5787 1929 2 -0.35 2.204941154860342 9.970266433432332 2.022591393621515 9 2 1
790 264 1 0.7 6.294693063174227 5.57568134508104 6.52135205313011 1 -1 0
4675 1559 1 0.7 3.799220233625432 9.698145631580575 7.931186757317397 1 2 1
791 264 2 -0.35 5.6716029584165835 4.909677684510413 5.769461924826829 1 -1 0
5766 1922 2 -0.35 0.41218534915091876 8.322023982566796 5.241548216416368 1 3 0
690 230 2 -0.35 3.7166990823339963 2.415607657185743 5.498872104370187 -2 1 0
5377 1793 1 0.7 1.621768972633518 0.743463848334134 8.366565741759636 3 0 0
5378 1793 2 -0.35 2.358541545135751 1.3585535467560648 7.730498831065527 3 0 0
4677 1559 2 -0.35 4.3040047058147675 9.568798191718614 6.89719215684846 1 2 1
4308 1436 2 -0.35 6.472591106259037 7.639575692072467 1.9234834963413754 -1 -1 -1
4306 1436 1 0.7 6.337603837736597 6.651542018661123 1.3299173400928095 -1 -1 -1
1092 364 2 -0.35 1.0584587947182091 6.651972996762138 2.708248608952539 0 -2 1
5726 1909 2 -0.35 1.1299937711277004 3.2511346321568886 3.3362720951790696 0 0 0
5725 1909 1 0.7 0.8156165559504776 2.3739732283501636 4.034183976380596 0 0 0
5727 1909 2 -0.35 0.546546652815951 1.5583518175992341 4.817707853949964 0 0 0
688 230 1 0.7 4.520001628314187 1.6077260667050215 5.801479637918571 -2 1 0
5379 1793 2 -0.35 0.9106574361813999 0.06652934259155666 9.036898540912619 3 0 0
1090 364 1 0.7 1.3496551637254903 5.776074606679195 2.013877052565446 0 -2 1
462 154 2 -0.35 7.142227976461557 2.996563014935751 8.06384291378196 1 -1 0
460 154 1 0.7 7.104865247084905 1.8621200611384234 8.172439914364034 1 -1 0
714 238 2 -0.35 8.262366719990549 3.761894246628388 4.69120319423578 0 -1 0
712 238 1 0.7 8.58599292099401 4.849467888405043 4.445753227926857 0 -1 0
594 198 2 -0.35 7.302559813214477 9.272817272246316 6.766060546180448 -2 0 1
6190 2064 1 0.7 8.453277152400103 0.03268960311913475 2.754562467403422 -1 0 1
1917 639 2 -0.35 9.095379772076932 9.92721052357577 2.6087851134627726 4 5 1
1915 639 1 0.7 9.260058807353293 9.911613769713378 3.7761013438472664 4 5 1
6143 2048 2 -0.35 5.481772007100028 0.4352712944826071 10.831721510048554 -1 0 1
6191 2064 2 -0.35 7.311286722592235 0.27538735669662134 2.8592073610592026 -1 0 1
689 230 2 -0.35 5.308643080820135 0.796154626167008 6.093037372565563 -2 1 0
1091 364 2 -0.35 1.6155055959175801 4.964566819066974 1.2314815758786009 0 -2 1
5764 1922 1 0.7 0.2721906173608906 7.193333092758301 5.45626215550992 1 3 0
6653 2218 2 -0.35 0.24240768927651934 3.4658683574928824 8.498008561978681 1 2 1
461 154 2 -0.35 7.261294897757448 0.7124997173072904 8.22187041321433 1 -1 0
713 238 2 -0.35 8.934443571853055 5.9250189435229075 4.107988998510791 0 -1 0
4676 1559 2 -0.35 3.1674269589749344 9.880823860191326 8.864965519833314 1 2 1
1916 639 2 -0.35 9.395305204104755 9.873712336269785 4.9405992583964995 4 5 1
2550 850 2 -0.35 2.5225842383122443 0.9818892388814584 11.554409802239112 0 1 0
2548 850 1 0.7 2.125457052277067 2.070606686688424 11.44658653451251 0 1 0
2549 850 2 -0.35 1.7967868117223187 3.171231274936719 11.252037376905205 0 1 0
4307 1436 2 -0.35 6.249268351092776 5.695238233467278 0.6957872263921557 -1 -1 -1
5765 1922 2 -0.35 0.15598672786894324 6.050792798923135 5.721787230426267 1 3 0
2724 908 2 -0.35 8.030159022602746 1.1619731998197376 0.17958862500586903 1 2 0
1178 393 2 -0.35 0.06571379325350488 1.063905070651283 1.1239696316317 -1 -3 1
6236 2079 2 -0.35 18.7224957867419 6.526713955947531 3.029703943577043 0 3 0
5222 1741 2 -0.35 10.712587287195916 1.5239916935268742 4.9905770723536484 0 0 0
5221 1741 1 0.7 10.424686264600851 0.9656750284509255 5.964403985062544 0 0 0
5223 1741 2 -0.35 10.114147204129985 0.4621139478855451 6.975456148590898 0 0 0
1767 589 2 -0.35 9.870278366375008 7.41422630144081 9.37927443134636 2 1 0
3350 1117 2 -0.35 12.42919547641848 2.9225543146060176 8.5054035850962 0 1 1
533 178 2 -0.35 11.589866365094801 7.937705757504921 2.1795870761143408 0 0 0
532 178 1 0.7 10.790845311430628 7.523158446354818 1.4484709874682462 0 0 0
534 178 2 -0.35 10.005518957719515 7.061200560971017 0.7074302115708813 0 0 0
5360 1787 2 -0.35 16.011473249001554 8.114302422620593 4.593550772314714 3 0 0
5361 1787 2 -0.35 15.400324798527205 7.952848943576678 2.364129565932141 3 0 0
5359 1787 1 0.7 15.684945623633403 8.02955266203767 3.4848390062603514 3 0 0
1766 589 2 -0.35 10.286655178123388 5.972516636258149 7.61942839368177 2 1 0
2122 708 1 0.7 14.713648067278697 7.67656375220827 8.16900043195502 3 2 0
2123 708 2 -0.35 15.838119123179357 7.809983241048293 7.9339204084461095 3 2 0
2124 708 2 -0.35 13.606710925206366 7.547048187049801 8.456324623984392 3 2 0
5434 1812 1 0.7 15.3527264742335 4.615745261465685 7.158133885315186 2 0 0
1765 589 1 0.7 10.09414677373905 6.723718127685459 8.477074698224579 2 1 0
126 42 2 -0.35 17.537942563581193 4.393187654362808 9.020315102084949 -1 -2 0
124 42 1 0.7 18.244767094790177 3.4729855193926524 8.922433195385818 -1 -2 0
1910 637 2 -0.35 12.502169254753944 9.317666866851575 6.24279198320386 0 0 0
125 42 2 -0.35 18.978188897768177 2.5798246832551235 8.887782795130686 -1 -2 0
5436 1812 2 -0.35 15.731665560297213 4.5376600874147215 6.052174660305888 2 0 0
5435 1812 2 -0.35 14.896897306630956 4.647202173923853 8.213814777983263 2 0 0
6435 2145 2 -0.35 14.597668506624284 3.3834446438895927 3.264260304142374 1 0 1
6433 2145 1 0.7 14.404530905398655 2.7916682755207285 4.246620121197092 1 0 1
6434 2145 2 -0.35 14.180895966293273 2.1740512239201575 5.2185750989968955 1 0 1
6235 2079 1 0.7 18.24722267699469 5.752894986258841 2.2836427818847267 0 3 0
2742 914 2 -0.35 10.491553009429422 3.848509125819377 2.269431064214294 1 -2 1
2740 914 1 0.7 11.22335527258047 3.2687982724573117 1.5958024813753606 1 -2 1
3351 1117 2 -0.35 12.239614397265548 4.412195457578313 10.245445599908214 0 1 1
3349 1117 1 0.7 12.385457284345735 3.681944235612744 9.391373383621016 0 1 1
5347 1783 1 0.7 18.88966479119737 7.697374309143533 11.020174501587485 2 0 0
6470 2157 2 -0.35 17.92939411275538 9.785931393541293 2.3069387117080273 0 1 1
6237 2079 2 -0.35 17.748657099291837 4.9963591651019446 1.590319901263678 0 3 0
4935 1645 2 -0.35 19.008498623975562 8.646256608312184 7.612468892932625 -2 -3 1
4933 1645 1 0.7 18.82383572078078 7.707724961629116 6.9580365530660035 -2 -3 1
4934 1645 2 -0.35 18.608001365807716 6.852900294482211 6.231041622520779 -2 -3 1
4164 1388 2 -0.35 18.26415151013419 2.809459079997509 5.887517789570409 2 3 0
2313 771 2 -0.35 14.849645683268974 8.107808254762528 11.21030642108855 0 -2 0
5274 1758 2 -0.35 15.57441795706454 1.6972639204624618 9.245096289069629 -2 2 1
2741 914 2 -0.35 11.981124190716377 2.733161736215183 0.9026386757324562 1 -2 1
5273 1758 2 -0.35 13.746642112609038 0.3614159048970275 9.852980558335812 -2 2 1
4961 1654 2 -0.35 16.78072167499005 9.968634020087187 9.493998805342802 0 -1 1
9 3 2 -0.35 15.448212192634859 4.852134152225377 11.606093608221052 2 0 0
6540 2180 2 -0.35 18.214905686188114 1.6746827636355324 11.701344767258579 -1 1 1
5272 1758 1 0.7 14.641406140842212 1.0887583885021348 9.63272926855025 -2 2 1
4162 1388 1 0.7 18.940344245902445 3.3427263434968135 5.127941312832195 2 3 0
5862 1954 2 -0.35 13.758146965952843 0.24460146690297058 2.0396464521954925 4 1 0
5860 1954 1 0.7 14.074080654094619 0.3359675971844348 0.9391934019104308 4 1 0
3321 1107 2 -0.35 11.342852698539819 9.80548792113988 0.06619204223110121 3 8 0
612 204 2 -0.35 17.29997015131128 2.4061351037138046 0.32733324499364613 1 1 0
2983 995 1 0.7 9.38695837424644 10.5014387069957 10.575290715998628 1 -1 1
5325 1775 2 -0.35 7.405041326063104 18.632507051670505 0.1544583327244506 2 1 0
2985 995 2 -0.35 8.317623418848243 10.556023992996007 10.12130748759887 1 -1 1
3185 1062 2 -0.35 4.406532834955759 12.297833707710664 3.2085369882371233 -1 -2 1
3186 1062 2 -0.35 6.204166114800902 11.274190833163653 4.28551142837413 -1 -2 1
450 150 2 -0.35 5.517083685227667 10.366141462187098 0.732169175734813 1 0 0
3184 1062 1 0.7 5.297922835459089 11.73219361559976 3.712589712681409 -1 -2 1
593 198 2 -0.35 6.710467680152426 11.394199431590092 7.54438387357828 -2 0 1
592 198 1 0.7 7.064983617104858 10.347866466214981 7.187805782876927 -2 0 1
3182 1061 2 -0.35 4.6494418192677145 12.931817746965987 10.163342647955895 2 1 0
5487 1829 2 -0.35 9.454417720287406 13.784074485760101 3.0587683473293072 2 0 0
6535 2179 1 0.7 3.1992964284741383 13.016924420992265 7.384954837754309 1 1 1
2086 696 1 0.7 6.048918965640531 15.451982618401763 4.735869474769654 0 0 0
2088 696 2 -0.35 7.233928242124779 15.363532737613447 4.906214982759249 0 0 0
6536 2179 2 -0.35 4.122939848649068 13.166090969712986 6.692363139723123 1 1 1
6537 2179 2 -0.35 2.359578655510445 12.786144433463235 8.151644370616053 1 1 1
2087 696 2 -0.35 4.901104019825825 15.509754390848464 4.640324396030105 0 0 0
409 137 1 0.7 7.32991628105374 14.472631808318217 8.193198158610421 2 -1 0
6950 2317 2 -0.35 1.532613142187198 11.544689779919102 4.978863320008143 0 1 0
6949 2317 1 0.7 0.7948252176926042 12.358881050685707 4.6247544053449445 0 1 0
410 137 2 -0.35 8.16557358035563 13.81095026709756 8.683999289389249 2 -1 0
6629 2210 2 -0.35 1.146860033115856 16.686522399002346 10.525078383692826 2 3 1
411 137 2 -0.35 6.586879512652172 15.236373610028073 7.736593475083008 2 -1 0
5928 1976 2 -0.35 1.7968451764271285 15.71421999443957 3.9208370738232845 0 1 0
5926 1976 1 0.7 2.329436080758826 15.986470339060661 2.8908235753377753 0 1 0
6628 2210 1 0.7 0.8418743603063628 15.760759415870393 11.150106818405522 2 3 1
6945 2315 2 -0.35 4.724921090204842 16.07252182192848 10.174816969073028 1 0 0
5927 1976 2 -0.35 2.865181046612121 16.341825162941554 1.9192985458849345 0 1 0
5866 1956 1 0.7 5.842545675601921 15.78319119636416 0.7004205616850399 2 1 0
6951 2317 2 -0.35 0.12293159528249581 13.228566298215597 4.3014708077473465 0 1 0
2403 801 2 -0.35 6.788868894582335 17.920491518573662 3.382598475660327 1 1 0
3026 1009 2 -0.35 9.496993332437619 13.268470930399655 11.536726050349166 1 2 0
5965 1989 1 0.7 0.030750349767170726 12.01662165178477 11.326220939607198 1 0 0
6943 2315 1 0.7 4.594954578710372 16.844169622394798 11.009842606991352 1 0 0
6042 2014 2 -0.35 7.137571618980046 17.422786451120885 9.699214461388502 0 0 0
6040 2014 1 0.7 7.530425465757718 17.98820601283157 8.774105759628629 0 0 0
5775 1925 2 -0.35 3.7124183057105453 17.999476196015788 8.088345900743008 -4 7 0
6041 2014 2 -0.35 8.027293808610015 18.501557485830357 7.878372254309729 0 0 0
5867 1956 2 -0.35 5.852755486676637 15.232399524899318 1.7157528684094636 2 1 0
5773 1925 1 0.7 3.031449952131506 17.07947085706833 8.019130320792984 -4 7 0
1997 666 2 -0.35 2.8689510491140187 12.878035720589656 0.750874518017925 2 2 0
2401 801 1 0.7 6.347467983394575 18.591941251815662 4.211396343115013 1 1 0
3181 1061 1 0.7 4.743616365979505 11.925042379290252 10.77429304034673 2 1 0
5324 1775 2 -0.35 9.556814473887258 18.06800820797262 0.8090800703424345 2 1 0
5774 1925 2 -0.35 2.3394100936824302 16.173627663197156 7.858611042820116 -4 7 0
5323 1775 1 0.7 8.473308519701789 18.30260274561384 0.5076715175479002 2 1 0
5485 1829 1 0.7 9.17076972399762 13.354567068104766 4.100421065030144 2 0 0
5486 1829 2 -0.35 8.935740982324456 12.914535146230065 5.134144129722576 2 0 0
4484 1495 2 -0.35 8.832046845089872 15.332233909812656 0.025370917382362555 -3 -1 1
3242 1081 2 -0.35 4.510092602682217 19.988417402984037 1.0966171430493894 0 0 1
3025 1009 1 0.7 8.90317717658277 14.25868576647038 11.623507955813837 1 2 0
3027 1009 2 -0.35 8.283987688248278 15.267363575863284 11.721224851698748 1 2 0
6944 2315 2 -0.35 4.467705308462317 17.737768232921024 11.71005230540892 1 0 0
3183 1061 2 -0.35 4.797607849296077 10.852345004895202 11.23041664336771 2 1 0
2402 801 2 -0.35 5.829628719054327 19.275381024975548 4.994295020063659 1 1 0
2984 995 2 -0.35 10.445244273684889 10.509386592146765 11.025068536082896 1 -1 1
1911 637 2 -0.35 13.285053998783688 11.325534531510508 5.33716640539962 0 0 0
1909 637 1 0.7 12.907213763294612 10.325316311392086 5.815529724255048 0 0 0
6469 2157 1 0.7 18.944067551267466 10.324901140243092 2.058371900558471 0 1 1
5702 1901 2 -0.35 18.762046777104395 18.20274634612923 2.0042478266833985 1 1 0
4573 1525 1 0.7 17.72950289716452 17.778452925415 5.530466256949428 0 1 1
3785 1262 2 -0.35 13.264635240791922 10.577450447023327 2.668546486999587 0 -1 0
4960 1654 1 0.7 17.503022859372464 10.862929261084355 9.296754508556626 0 -1 1
3784 1262 1 0.7 13.464418685675588 11.064751692781112 1.6483227232555318 0 -1 0
4500 1500 2 -0.35 10.020108127326122 11.415018008382082 7.6744433200171205 -1 0 1
4498 1500 1 0.7 10.725805881570121 12.315291855274138 7.642470920120776 -1 0 1
5531 1844 2 -0.35 13.38666598716827 11.215618134478065 9.73696701300884 0 0 0
6441 2147 2 -0.35 15.302289661246022 17.851738888463757 2.9742769768447204 0 1 1
4499 1500 2 -0.35 11.526278720519889 13.15209203773457 7.549923272565703 -1 0 1
2520 840 2 -0.35 16.794816550069157 11.836128029819395 6.536781892382095 2 1 0
2518 840 1 0.7 17.354799857243812 11.879042983711095 5.51046296357951 2 1 0
2519 840 2 -0.35 17.900498814013766 11.883396883888253 4.492546762860124 2 1 0
5530 1844 1 0.7 13.275095998936644 11.5721826459671 10.832948846998205 0 0 0
5637 1879 2 -0.35 12.226543666823682 15.46714925180921 1.17081207705695 1 1 0
6562 2188 1 0.7 14.485417193106333 14.72445227671975 6.719881310210343 1 0 1
2133 711 2 -0.35 18.279378195564817 17.405945924561127 8.766058123932618 0 0 0
4312 1438 1 0.7 10.305829138042952 16.00108387143502 8.372227836473922 1 0 0
4313 1438 2 -0.35 9.972718899114708 16.10313396097036 7.287705197319124 1 0 0
5636 1879 2 -0.35 12.877409778928044 14.046957119544778 2.8710423328539774 1 1 0
5635 1879 1 0.7 12.537090525216767 14.754832209565683 2.0432397139299807 1 1 0
6564 2188 2 -0.35 14.114962019230372 15.003759924175117 7.770313013791716 1 0 1
5554 1852 1 0.7 10.54949626934938 17.548451538556364 4.813342109906626 3 -1 0
5555 1852 2 -0.35 10.020458627530118 16.674902457599742 4.258327935582944 3 -1 0
6563 2188 2 -0.35 14.739864277444825 14.408422654350996 5.6174967385039185 1 0 1
4671 1557 2 -0.35 17.383025620929928 14.923689207045737 3.377403173635958 -1 0 1
4669 1557 1 0.7 16.78699024618717 14.506918811643192 2.4767381646521955 -1 0 1
2131 711 1 0.7 18.13865283521138 16.27011644109328 8.991604624299418 0 0 0
6439 2147 1 0.7 14.336836490904773 17.534157439461286 3.5067905293135624 0 1 1
4670 1557 2 -0.35 16.068651299662292 14.135830429932245 1.6315150519470494 -1 0 1
6440 2147 2 -0.35 13.282549093185052 17.25298017395728 3.8756255657247465 0 1 1
2132 711 2 -0.35 18.00052306904857 15.187316227376911 9.27575642743857 0 0 0
5556 1852 2 -0.35 11.102696787177408 18.391403497570124 5.384207781577132 3 -1 0
3786 1262 2 -0.35 13.734813679174476 11.57845841616268 0.6600737466866363 0 -1 0
2607 869 2 -0.35 15.659017392487506 14.449076307221558 11.65986810176432 0 -1 0
4962 1654 2 -0.35 18.24703406856913 11.752281811796747 9.21589272396748 0 -1 1
4575 1525 2 -0.35 16.769061913040485 17.266708913552165 5.894924766511747 0 1 1
4314 1438 2 -0.35 10.61402151535346 15.877164672505533 9.49977628055756 1 0 0
4574 1525 2 -0.35 18.606378317980756 18.32277115922903 5.017828670410318 0 1 1
3159 1053 2 -0.35 15.618179480004326 19.562241056137047 8.943451501081922 0 -2 1
7037 2346 2 -0.35 0.8104316005054679 3.094324432730198 18.81205477126089 3 -8 1
3323 1108 2 -0.35 2.0117589705721137 8.798862861161513 11.876063789842235 -1 0 1
127 43 1 0.7 7.8375420799717865 2.213737293386837 12.01662736196756 0 1 0
3737 1246 2 -0.35 2.6907974005058897 5.368234445839022 21.026006569726977 1 -1 0
3736 1246 1 0.7 2.1924541295089446 4.545000676974776 21.69429411446263 1 -1 0
3657 1219 2 -0.35 6.0233591799881125 0.5118723493518926 18.549997502571625 3 0 0
3809 1270 2 -0.35 6.43370421924319 4.679044881069577 13.117992835572176 1 2 0
3808 1270 1 0.7 5.676202002165266 5.2067675278241445 12.407903342091391 1 2 0
3810 1270 2 -0.35 4.943998275854773 5.788266633799366 11.744217917440528 1 2 0
3738 1246 2 -0.35 1.611695285359946 3.8540926104163473 22.395372145807233 1 -1 0
4392 1464 2 -0.35 1.0180086124295236 1.3657370413423897 15.609549427942518 0 0 1
4265 1422 2 -0.35 7.12953072616315 9.076998119048042 12.530201761489865 2 1 0
884 295 2 -0.35 4.730778389747881 3.1322443499726775 19.229199802788607 3 -1 0
4264 1422 1 0.7 6.507175211392564 8.603109491667672 13.37488955929226 2 1 0
883 295 1 0.7 4.017581466974665 2.480871706530536 18.631262446541392 3 -1 0
957 319 2 -0.35 3.4252157245975035 6.533301862775199 16.06813555278763 0 -1 1
956 319 2 -0.35 2.4160243297050723 4.695338460799482 17.036537691492924 0 -1 1
955 319 1 0.7 2.9407135496162873 5.594610642856179 16.54303798511446 0 -1 1
867 289 2 -0.35 8.722621533508551 2.7632208116637154 18.059044377178893 0 1 0
6832 2278 1 0.7 4.43744487744524 8.626619842654264 20.729824714716525 -1 -3 1
6833 2278 2 -0.35 5.575535408715545 8.553993743142438 20.668749422640857 -1 -3 1
753 251 2 -0.35 3.5990943521530214 1.226204800473969 21.26014843758252 5 2 0
2721 907 2 -0.35 0.5651674781668684 6.122152943034696 15.083959756648246 -2 1 1
2720 907 2 -0.35 0.23724830884536247 8.359499887521219 14.47006729852295 -2 1 1
2719 907 1 0.7 0.3783200291759911 7.22038207920321 14.725475433103352 -2 1 1
6834 2278 2 -0.35 3.3064495621151107 8.799306984791409 20.94506433987148 -1 -3 1
3654 1218 2 -0.35 7.621049287945248 4.6562572857233935 16.097527399505125 2 -1 0
4057 1353 1 0.7 3.873831549436338 9.1777960869793 16.923973633601733 1 1 0
3652 1218 1 0.7 6.481565158447996 4.525987762230574 16.167177824382584 2 -1 0
1589 530 2 -0.35 8.241577657004749 6.865512467579354 20.09303413257782 -1 -1 1
3653 1218 2 -0.35 5.345600245133957 4.342693131494593 16.212999497621524 2 -1 0
1588 530 1 0.7 7.515550244853748 6.015939527648909 19.823746544999942 -1 -1 1
1590 530 2 -0.35 6.747053208751186 5.172448281212372 19.62335717008546 -1 -1 1
505 169 1 0.7 5.732993045495169 5.033665378551952 22.630341725600836 1 2 0
506 169 2 -0.35 6.543441492300159 5.879870326214238 22.503967125983184 1 2 0
5526 1842 2 -0.35 8.193168782501942 9.27310591925756 22.143840595490154 4 1 0
5524 1842 1 0.7 9.037840555057171 9.39081152248604 21.357321072637266 4 1 0
4059 1353 2 -0.35 3.895492953400512 8.70073381700708 17.984028947909245 1 1 0
4390 1464 1 0.7 1.6470157485868588 1.9933155686604354 14.866255954505284 0 0 1
885 295 2 -0.35 3.301308270714809 1.8684081670331354 18.002029181149542 3 -1 0
4391 1464 2 -0.35 2.412847431042648 2.607339706125011 14.178332764168337 0 0 1
4266 1422 2 -0.35 5.95807008695034 8.15597117134297 14.287948726066034 2 1 0
2927 976 2 -0.35 7.321040275019099 9.801164990803478 18.57958569714213 2 0 0
4679 1560 2 -0.35 8.496295527016386 6.553692779567699 13.781196513318434 1 -1 1
2926 976 1 0.7 7.124175723433344 9.118960432455559 17.65978655720733 2 0 0
3655 1219 1 0.7 6.636734946105404 0.8162414792402867 19.464295502778633 3 0 0
3656 1219 2 -0.35 7.142768441264837 1.1322440819946367 20.425004626763297 3 0 0
2928 976 2 -0.35 6.855286326899439 8.364380337334161 16.812112515598983 2 0 0
507 169 2 -0.35 4.972835437837727 4.163651019869493 22.69845710423168 1 2 0
128 43 2 -0.35 7.822191203857114 1.6050755075904592 13.030226054032248 0 1 0
865 289 1 0.7 8.917039600913014 2.1575817047773755 17.060069915685077 0 1 0
4680 1560 2 -0.35 9.675414632366406 4.552129052839078 13.862232172875435 1 -1 1
4678 1560 1 0.7 9.156998934775146 5.590681659979745 13.825605633905349 1 -1 1
6158 2053 2 -0.35 9.529425703845723 3.9144639858495034 22.49428879730783 -1 -1 1
866 289 2 -0.35 9.13768059145956 1.7173621258375444 15.99714914576288 0 1 0
4058 1353 2 -0.35 3.8835742753040177 9.641591593932258 15.872885871973693 1 1 0
7036 2346 1 0.7 0.10354496241684305 3.3418277494690907 17.918473728097787 3 -8 1
751 251 1 0.7 3.0835264176670503 0.41298074233995147 21.926292172270244 5 2 0
6539 2180 2 -0.35 16.9087151692795 0.06317360433220952 12.687313879267194 -1 1 1
5348 1783 2 -0.35 18.30895956427895 8.160337537668541 11.862837391569292 2 0 0
4357 1453 1 0.7 13.70880493706984 1.3797637217561696 13.092881790464325 0 0 1
4137 1379 2 -0.35 10.47384601349551 1.2349182104546592 21.658524767357175 1 0 0
4358 1453 2 -0.35 14.121924583539514 0.6694265478349013 13.900464873834704 0 0 1
4135 1379 1 0.7 11.015776261843262 0.9478162488195497 20.686917053834893 1 0 0
4136 1379 2 -0.35 11.582423662775177 0.7794157567740401 19.667523494733693 1 0 0
5525 1842 2 -0.35 9.776006224896603 9.513308686971964 20.440484553078416 4 1 0
8 3 2 -0.35 15.957801331874455 2.9814178001250586 12.894708820842284 2 0 0
7 3 1 0.7 15.736265602386755 3.901089930648834 12.228297538976452 2 0 0
2054 685 2 -0.35 10.977754197407188 7.164770927784552 22.07368471136152 0 1 0
4806 1602 2 -0.35 18.686789125209625 7.557270060967496 17.09339857659777 0 0 1
813 271 2 -0.35 12.88850941830356 4.4169466888319056 14.276776931503672 1 1 0
811 271 1 0.7 12.607900903059882 5.492935336248306 13.975808877749646 1 1 0
4359 1453 2 -0.35 13.324132159304575 2.03966712991755 12.251815042728666 0 0 1
115 39 1 0.7 17.957953285950094 3.421282567742352 19.6843842575667 2 0 0
116 39 2 -0.35 18.560205505959658 3.4295315953434002 20.654777164508822 2 0 0
117 39 2 -0.35 17.29800658069497 3.4936508113013427 18.744272491631666 2 0 0
2053 685 1 0.7 11.555618847160648 6.154954016383153 22.243676263375715 0 1 0
6538 2180 1 0.7 17.567318955314143 0.8580695013080106 12.190048766186525 -1 1 1
2055 685 2 -0.35 12.223724399405725 5.234895298160492 22.472104799793385 0 1 0
5963 1988 2 -0.35 10.416473952441738 8.782467630095036 17.280377017411176 -5 -1 0
812 271 2 -0.35 12.370039402156912 6.553938516903253 13.62563677705084 1 1 0
2311 771 1 0.7 15.188599968003002 7.727951140674919 12.236506544133922 0 -2 0
5915 1972 2 -0.35 12.620761202418784 9.937585803194558 21.31181229419884 1 2 0
5627 1876 2 -0.35 17.795944382604464 1.2917884508935298 16.23290494734854 2 0 0
5626 1876 1 0.7 16.78389639293334 1.7873493458031042 16.179473767156086 2 0 0
5153 1718 2 -0.35 11.1995278772523 4.102018622952295 16.995595923490853 -1 -1 1
5152 1718 1 0.7 10.908919015899679 4.693409690634274 17.94392394166304 -1 -1 1
4805 1602 2 -0.35 19.373715048028554 5.4603932129651325 17.8374711516647 0 0 1
5154 1718 2 -0.35 10.544866173853755 5.264868899248727 18.840351872641104 -1 -1 1
4804 1602 1 0.7 19.04433295945732 6.521090864284341 17.45119628454144 0 0 1
5478 1826 2 -0.35 13.07466416024463 6.475186307202874 16.93686539747975 4 1 0
5962 1988 1 0.7 10.24352399411437 7.789422015651643 16.775556527889957 -5 -1 0
123 41 2 -0.35 18.300195258114098 7.090385700950154 20.885470789688114 1 2 0
2312 771 2 -0.35 15.621265464174364 7.287880472840088 13.236091775834566 0 -2 0
122 41 2 -0.35 16.315765005703003 7.20802915349816 22.032903456368953 1 2 0
5476 1826 1 0.7 13.797153073244012 6.33706457178003 17.83506751171859 4 1 0
121 41 1 0.7 17.308043685057044 7.186283167019473 21.438529078259634 1 2 0
5964 1988 2 -0.35 10.069898670592647 6.760789167881316 16.213202049280266 -5 -1 0
5477 1826 2 -0.35 14.480342494987635 6.101979840261635 18.730412503544436 4 1 0
5916 1972 2 -0.35 12.504486525340413 8.454732814520856 19.500182365966133 1 2 0
5628 1876 2 -0.35 15.74795339572519 2.257153837070467 16.06138034327099 2 0 0
5914 1972 1 0.7 12.538738428721501 9.136636104046215 20.44017863349437 1 2 0
5975 1992 2 -0.35 11.641849500825801 9.797423994158262 13.709096688543319 3 -1 0
1130 377 2 -0.35 15.485557066644002 3.9361469929749147 23.19217379263701 -3 0 0
1131 377 2 -0.35 14.509638751204758 2.9012635395216253 21.387469364123454 -3 0 0
1129 377 1 0.7 15.001461535418033 3.415251653043332 22.306338717810092 -3 0 0
3914 1305 2 -0.35 18.155075406837426 9.568419113427169 14.741936276111515 2 1 0
6700 2234 1 0.7 14.906116728848648 9.977234208641368 17.73792065965035 -4 3 1
6702 2234 2 -0.35 14.238652584946934 9.830488283336027 16.812015663281876 -4 3 1
6062 2021 2 -0.35 7.254397871851225 19.079177061906016 20.038080090170652 2 -1 0
5966 1989 2 -0.35 0.6552403035388238 11.874049471517857 12.294787153367405 1 0 0
6630 2210 2 -0.35 0.6116577058163819 14.86811452703819 11.8278699525499 2 3 1
3933 1311 2 -0.35 8.038525515596039 19.590030080160453 16.807496790073472 0 -1 0
416 139 2 -0.35 0.44583330256078196 16.09394988952095 18.63532572556733 -1 2 0
3931 1311 1 0.7 8.796182369126655 19.490426051951953 15.935687735209479 0 -1 0
266 89 2 -0.35 1.504950197805487 11.426512135235225 17.88370505635612 2 -3 0
415 139 1 0.7 0.2961663829843245 15.640785499954475 19.727318844146215 -1 2 0
371 124 2 -0.35 7.993319256965826 13.287809144627387 23.106658129026545 1 4 0
2935 979 1 0.7 1.0817157755331004 19.49089054018712 22.710176458353562 -1 0 1
2937 979 2 -0.35 1.1508772735495727 18.545206846609506 22.050163544257288 -1 0 1
718 240 1 0.7 2.633167160123601 19.525926147278458 13.26122499253654 1 0 0
6490 2164 1 0.7 0.1153488192226141 15.343908803615145 14.96562138451861 1 0 1
863 288 2 -0.35 1.7629842699040446 11.037669165306843 22.815983906517424 3 -1 0
720 240 2 -0.35 2.098308689172217 18.606913427168358 13.707081216370797 1 0 0
862 288 1 0.7 1.3123224758228016 11.302718383445074 21.79142586616621 3 -1 0
965 322 2 -0.35 6.75105694296541 11.341374011612293 15.761916907639588 5 -4 0
3676 1226 1 0.7 9.062920663460364 15.686233911311644 15.647189216254757 1 -1 0
964 322 1 0.7 6.803129328666939 11.929817162908883 14.766295398473856 5 -4 0
3902 1301 2 -0.35 4.341362051129208 11.78552369128987 19.223186182189885 3 0 0
966 322 2 -0.35 6.82967340949535 12.50416875518373 13.77944738609462 5 -4 0
1167 389 2 -0.35 3.60898361588787 16.81916609324933 16.96780149501586 1 -1 0
864 288 2 -0.35 0.8334683484835477 11.524806464136535 20.758193350285104 3 -1 0
1165 389 1 0.7 4.564132820952754 16.62156863362697 17.605029016396976 1 -1 0
1166 389 2 -0.35 5.50531577609875 16.528932340253235 18.28574128907066 1 -1 0
372 124 2 -0.35 7.625774470335303 12.466051368901434 20.960433545052094 1 4 0
265 89 1 0.7 0.3729457009730942 11.638484254046011 17.869973007656853 2 -3 0
5146 1716 1 0.7 4.802223632817241 19.08935690832383 22.14486770204609 -1 2 1
3903 1301 2 -0.35 4.3742535986949935 12.658027125025209 17.084831299711066 3 0 0
3901 1301 1 0.7 4.4282852465288025 12.221793120886309 18.15893870945967 3 0 0
6481 2161 1 0.7 4.641183560621329 14.750798645463497 20.531961301352954 0 1 1
6483 2161 2 -0.35 3.7186116580979145 15.093518111748995 19.892929535189865 0 1 1
1071 357 2 -0.35 5.9352654140551415 16.379483275040418 15.037279995004958 -1 1 1
1069 357 1 0.7 5.288061962977012 15.924947320816258 14.181509157385838 -1 1 1
1070 357 2 -0.35 4.618784077457829 15.394439663130076 13.362681653249062 -1 1 1
6631 2211 1 0.7 3.2669978616111983 19.641956646113577 17.663577707020266 0 0 1
6482 2161 2 -0.35 5.610763488982881 14.493565288504495 21.103459326553338 0 1 1
5148 1716 2 -0.35 5.095178675301559 18.033515441820644 22.516957804957613 -1 2 1
4593 1531 2 -0.35 1.8349888050094991 13.123848581614364 15.11083777040988 -2 2 1
95 32 2 -0.35 7.707399282519757 14.65222676544351 18.6188103787927 1 0 0
4591 1531 1 0.7 2.7635473412171936 12.690896235645834 14.550811646309768 -2 2 1
4592 1531 2 -0.35 3.6918363893681323 12.39910322676697 13.916171853101746 -2 2 1
94 32 1 0.7 8.59985891513963 14.874623680555239 19.326944808185893 1 0 0
370 124 1 0.7 7.830056307652407 12.833437996670936 22.05611298910165 1 4 0
6492 2164 2 -0.35 1.0176633842924616 16.003763562454335 14.705083116684788 1 0 1
6632 2211 2 -0.35 3.843934619601203 19.40833628825746 18.65926657197494 0 0 1
6633 2211 2 -0.35 2.7091074415815335 19.917722174486276 16.690690022729985 0 0 1
3554 1185 2 -0.35 9.719039524195413 12.311088889553563 17.80280869204426 1 -3 0
2799 933 2 -0.35 7.350611191333625 18.11858290850943 12.95394784062557 -2 2 1
3677 1226 2 -0.35 8.68738265657173 14.73704284829622 15.100938824972964 1 -1 0
96 32 2 -0.35 9.527190965854837 14.926133470060483 20.054244809487017 1 0 0
3678 1226 2 -0.35 9.431499186746164 16.559135827638453 16.304835311304334 1 -1 0
3932 1311 2 -0.35 9.51901377794239 19.348815130627266 15.022230661502912 0 -1 0
2798 933 2 -0.35 9.568098788672646 18.387152082280302 12.247525175711809 -2 2 1
2797 933 1 0.7 8.463841085904171 18.251155344937608 12.58913150904759 -2 2 1