LAMMPS data file via write_data, version 29 Aug 2024, timestep = 4000000, units = real

7050 atoms
2 atom types
4700 bonds
1 bond types
2350 angles
1 angle types

0 40 xlo xhi
0 40 ylo yhi
0 240 zlo zhi

Masses

1 12.0107
2 15.9994

Pair Coeffs # lj/cut/coul/long/omp

1 0.0536545 2.8
2 0.156989 3.05

Bond Coeffs # harmonic/omp

1 1028.27 1.16

Angle Coeffs # harmonic/omp

1 55.96 180

Atoms # full

5288 1763 2 -0.35 8.125974039863612 19.54249126654348 5.446656835762386 -2 -2 0
5946 1982 2 -0.35 7.929024770972032 1.785556334955871 16.95290303671256 0 2 0
5945 1982 2 -0.35 9.894238817762139 1.303401039240362 18.098644078646437 0 2 0
523 175 1 0.7 5.167847254592242 1.1603529503874566 21.226031672601763 2 4 0
525 175 2 -0.35 5.909115016997232 1.52182648613884 20.42754059374137 2 4 0
5944 1982 1 0.7 8.93902862754623 1.5722176397553 17.506866196570442 0 2 0
524 175 2 -0.35 4.404398195982123 0.7571442452331879 21.979209149172135 2 4 0
6502 2168 1 0.7 1.6006731260517957 1.9622636730589136 24.42822836089515 -2 0 0
6504 2168 2 -0.35 0.4994582387014054 1.8091399239533752 24.183180165876045 -2 0 0
6503 2168 2 -0.35 2.7195442757981376 2.0672621006492626 24.660838258305684 -2 0 0
5862 1954 2 -0.35 2.8159905483147925 13.492668515704509 18.335830832888632 2 1 1
5861 1954 2 -0.35 2.489838177984006 11.512670434751575 17.156944011758636 2 1 1
5860 1954 1 0.7 2.6579516940090455 12.49415317165825 17.735104743379907 2 1 1
5254 1752 1 0.7 15.360552711259817 11.870429171425595 23.16570152847804 4 -2 1
5255 1752 2 -0.35 16.210070322432514 11.990214582350028 23.940394931154092 4 -2 1
5256 1752 2 -0.35 14.5579353545204 11.702338519163458 22.339380113336084 4 -2 1
2012 671 2 -0.35 19.565479674562464 11.070238116613032 24.094195528154824 -1 2 1
2013 671 2 -0.35 19.256564232262413 12.98093485855584 25.36335028877312 -1 2 1
2011 671 1 0.7 19.442558748284107 12.022983112397965 24.72929700609505 -1 2 1
2979 993 2 -0.35 14.442271187873521 7.721194634162982 43.87362418527561 7 -1 1
2977 993 1 0.7 14.565388316237017 8.462009787642854 44.77654196314492 7 -1 1
2978 993 2 -0.35 14.595810371152428 9.223831640516913 45.668089082798595 7 -1 1
6872 2291 2 -0.35 9.12179532981702 15.483688085757748 42.742934900754705 0 0 1
6871 2291 1 0.7 9.649458025862915 15.74953955319774 43.74059987230875 0 0 1
6873 2291 2 -0.35 10.178223722865674 16.05972796883993 44.71812713959969 0 0 1
5645 1882 2 -0.35 4.055209371751079 1.721609106547826 64.97080675562877 2 1 0
5644 1882 1 0.7 4.0681925137929555 0.6275898519667223 64.63206224420249 2 1 0
5641 1881 1 0.7 9.900497092144898 12.867170823031786 66.79120720889526 -1 1 0
5642 1881 2 -0.35 8.796711785529334 13.191613139667265 66.8373116964832 -1 1 0
210 70 2 -0.35 5.72737167339662 17.85163773792671 67.88341556401565 3 -7 0
5643 1881 2 -0.35 11.017210575372623 12.709435110481827 66.65748403254511 -1 1 0
1209 403 2 -0.35 13.256586645430188 16.350530367947943 64.13957365678449 -3 2 0
1207 403 1 0.7 13.549924264737712 16.874503422103125 65.15515531995156 -3 2 0
1208 403 2 -0.35 13.741217069533086 17.375362026215477 66.16815275709497 -3 2 0
1702 568 1 0.7 16.890862517601377 18.55167775096147 64.19258966197029 4 16 1
1704 568 2 -0.35 17.281921945490446 19.257149498811813 65.00595609423839 4 16 1
1703 568 2 -0.35 16.39508377241703 17.87619236219676 63.413392593531405 4 16 1
5279 1760 2 -0.35 16.471149852117918 15.868163618979958 67.04425287562793 0 -1 0
5278 1760 1 0.7 15.820770129535582 15.183473309205633 67.72862132155878 0 -1 0
5638 1880 1 0.7 11.168131952806453 19.511245509754495 67.04460508482705 0 -1 0
1070 357 2 -0.35 19.531689944292193 16.111439476671272 67.54766261539821 -1 1 0
5640 1880 2 -0.35 11.61736043494625 19.105996471850013 68.03850848295126 0 -1 0
688 230 1 0.7 5.9072895054109384 0.6102110641839562 68.08508093270653 7 8 1
690 230 2 -0.35 6.326902035610054 1.685722793494113 68.17526057411693 7 8 1
5427 1809 2 -0.35 1.4459295419447273 6.9682294746559545 71.2642778516532 0 2 0
3645 1215 2 -0.35 8.348393601665684 7.69338357386009 68.94500605478393 0 0 0
4335 1445 2 -0.35 7.829406697910249 4.402111514630111 74.68067596504548 -1 1 0
4333 1445 1 0.7 7.923905354434348 3.593257220832322 75.47524340508036 -1 1 0
4680 1560 2 -0.35 3.4721423313032274 1.9946948996604128 71.55003445009002 1 -3 0
4678 1560 1 0.7 4.283951718451083 2.006995543438621 72.39132295968153 1 -3 0
4679 1560 2 -0.35 5.030785521403169 1.9536449609347346 73.26730824091729 1 -3 0
3643 1215 1 0.7 9.505092717159744 7.548906300161269 69.02111653008238 0 0 0
4334 1445 2 -0.35 7.994318282640842 2.8099910871160145 76.35977965160819 -1 1 0
96 32 2 -0.35 9.551107296246043 1.0020556099410585 73.5674864135695 -1 1 0
3835 1279 1 0.7 9.69568206910747 7.290535328618402 74.05238522388967 -2 0 1
3837 1279 2 -0.35 9.2641328916003 7.229444223690482 75.12989877922624 -2 0 1
5312 1771 2 -0.35 0.7686516834236566 2.4473864534368257 76.14005476687502 -2 0 0
1765 589 1 0.7 4.396886446483291 6.126159162244283 74.40013839514202 -1 -1 0
5425 1809 1 0.7 0.6702234175517562 7.620549958761411 71.7438525703222 0 2 0
94 32 1 0.7 9.018659062193917 0.40782899627684777 72.70736275674537 -1 1 0
1766 589 2 -0.35 3.513847248693441 6.077527978276307 73.64934674185095 -1 -1 0
78 26 2 -0.35 3.7532159169244035 9.146554659685119 72.42433416440579 0 0 0
1767 589 2 -0.35 5.3329108153425935 6.281567371466235 75.08339478536341 -1 -1 0
6080 2027 2 -0.35 7.060821793695879 0.09080599559201813 74.94756300869959 1 0 1
6079 2027 1 0.7 5.922712063604774 0.09214561356835323 75.18143023363926 1 0 1
5311 1771 1 0.7 1.2153426506427623 2.97091555982035 75.18400839049924 -2 0 0
4143 1381 2 -0.35 2.528542107581411 7.985240049606588 75.78080249658437 8 -9 0
4141 1381 1 0.7 1.4574879445250746 7.500739374657821 75.7303803565776 8 -9 0
4142 1381 2 -0.35 0.3720599805307314 7.1008671627891795 75.69306324663613 8 -9 0
76 26 1 0.7 4.795772689022638 9.655813943224963 72.56490519605111 0 0 0
848 283 2 -0.35 4.945297130922482 3.4805194727015794 76.29324528651695 0 0 0
6081 2027 2 -0.35 4.8566926234390255 0.05953700447774836 75.6277286545412 1 0 1
5897 1966 2 -0.35 0.22903474312390812 0.35351576107487676 70.09638632297434 -1 3 0
1140 380 2 -0.35 1.8877568422470783 0.3190150535014103 74.3948827389054 1 -1 0
5313 1771 2 -0.35 1.6352467113795044 3.49724741707883 74.2232080884529 -2 0 0
3836 1279 2 -0.35 10.245696485402751 7.422408645943309 73.00314486197487 -2 0 1
3644 1215 2 -0.35 10.672993052905959 7.5666908758925295 69.02110466708027 0 0 0
5568 1856 2 -0.35 12.1856199871005 4.001572699706333 72.35219855266499 1 2 0
5566 1856 1 0.7 11.684282320583614 4.382880197726616 73.29386185151033 1 2 0
4360 1454 1 0.7 15.86864412938359 9.059470546216426 75.7879478983067 -3 0 0
4361 1454 2 -0.35 14.92690311234228 8.435889061501314 75.71642977562804 -3 0 0
643 215 1 0.7 15.28063887314189 4.928751922728914 72.25298379570316 -1 1 0
4362 1454 2 -0.35 16.826507617119987 9.67773486547771 75.83103160651832 -3 0 0
644 215 2 -0.35 15.454229883425201 3.890878130067714 71.75786099589712 -1 1 0
645 215 2 -0.35 15.056827504874944 6.020021022634889 72.60829031677616 -1 1 0
3164 1055 2 -0.35 14.11137511904913 1.8501212752783571 74.28905416838585 1 3 1
3163 1055 1 0.7 15.228306794207311 1.5121628546123889 74.17386213785963 1 3 1
1975 659 1 0.7 17.96473224493302 4.033934489101403 75.41781581749682 -2 1 0
1977 659 2 -0.35 17.62101838975922 4.145219822219753 74.31095498608367 -2 1 0
7046 2349 2 -0.35 11.521659115921352 9.674267999021025 75.55109552939257 -7 -7 1
3165 1055 2 -0.35 16.30042975270063 1.1095707896066045 74.09034859193552 1 3 1
5567 1856 2 -0.35 11.139174060099199 4.7420782630689855 74.26815575496437 1 2 0
5201 1734 2 -0.35 14.969639113512782 4.769796306906646 75.89787041822466 0 2 0
1976 659 2 -0.35 18.242667749158414 3.942240336540528 76.5498252457111 -2 1 0
270 90 2 -0.35 19.834694373591276 7.350085838571079 75.7176648306926 1 1 0
5063 1688 2 -0.35 12.303380770423388 0.1151123427560301 76.50523677182144 6 7 1
209 70 2 -0.35 7.091450215698116 16.85592584874756 69.49281477378021 3 -7 0
208 70 1 0.7 6.3722386124348915 17.36068383360289 68.72489885810234 3 -7 0
77 26 2 -0.35 5.87460175078211 10.059134958314335 72.61871775409031 0 0 0
2721 907 2 -0.35 1.8574042348839213 11.597585851529661 76.26492262497989 -1 2 0
2719 907 1 0.7 1.4196169618331502 11.656972306997702 75.21621824141523 -1 2 0
5473 1825 1 0.7 5.478172094100935 15.929017843826216 72.12307660943658 -1 2 0
6884 2295 2 -0.35 8.546618851202744 10.325969662895496 74.28482285516789 2 1 1
6883 2295 1 0.7 8.203297067713137 11.426002598969678 74.49870842214433 2 1 1
6885 2295 2 -0.35 7.891077134358893 12.522061622934295 74.58754603918904 2 1 1
5475 1825 2 -0.35 6.048379859521895 14.959501672975573 72.38968282898739 -1 2 0
3491 1164 2 -0.35 3.1070661782176696 11.865640155248736 70.95130360561151 2 0 0
3490 1164 1 0.7 3.3405824519172196 12.94216673229398 70.56648685444682 2 0 0
3492 1164 2 -0.35 3.5975362557894113 14.003214253480106 70.09470293331475 2 0 0
559 187 1 0.7 0.8886918251752168 14.961710739478162 72.82469284363773 1 2 0
560 187 2 -0.35 1.7458601781257934 14.392707715512039 72.33191704003207 1 2 0
2720 907 2 -0.35 0.9268591650037885 11.693361338991458 74.15737507746492 -1 2 0
5474 1825 2 -0.35 4.94576682573283 16.929310805302716 71.96468763359276 -1 2 0
561 187 2 -0.35 0.039162832131150085 15.619338470399091 73.31152028745416 1 2 0
93 31 2 -0.35 1.8070067779689172 17.94738580427697 71.43552446950852 1 -1 0
2210 737 2 -0.35 6.450714463662561 18.402448780097124 74.31895953106833 -5 1 1
6972 2324 2 -0.35 9.637591174267934 14.57206845510199 75.2817387263703 -2 3 -1
6970 2324 1 0.7 9.84743486087784 14.594093007240208 74.13991610234383 -2 3 -1
2079 693 2 -0.35 4.465861427161224 10.3886703719649 75.25801005066602 1 1 0
2211 737 2 -0.35 7.947735311247276 16.827183044625478 75.17850117142005 -5 1 1
2209 737 1 0.7 7.142370413416465 17.558236500811972 74.76947395616308 -5 1 1
2040 680 2 -0.35 9.3710760719409 18.387532246346886 72.42731848864729 0 0 0
2077 693 1 0.7 4.6269954117857655 10.548029624658113 76.3631361309312 1 1 0
426 142 2 -0.35 2.5041367276921953 18.06783544713941 76.05907136656647 5 10 0
91 31 1 0.7 0.7579665666020574 18.137575958252743 70.993370680172 1 -1 0
1069 357 1 0.7 19.813188753007243 15.329860138055135 68.35487340286305 -1 1 0
2186 729 2 -0.35 16.337237312458836 11.039559942213726 72.37433804724878 -1 -1 0
1037 346 2 -0.35 12.771628908144619 11.811590268779362 73.0765718740927 -3 0 0
2038 680 1 0.7 10.308478533740033 18.014162381880265 71.82790897573304 0 0 0
3782 1261 2 -0.35 18.042247750254386 12.711337733948437 74.80948102579842 -5 0 1
3781 1261 1 0.7 19.04386659256062 12.202756978625741 75.08033814845004 -5 0 1
1038 346 2 -0.35 14.318666989089767 12.490302856935301 74.66011764798439 -3 0 0
1036 346 1 0.7 13.506553095019573 12.190901842377823 73.88751814958688 -3 0 0
507 169 2 -0.35 11.346037104078786 15.186625275491949 68.79537587437746 -2 0 0
506 169 2 -0.35 12.265922270838665 14.010451080102806 70.52297937813402 -2 0 0
505 169 1 0.7 11.81688546490234 14.62128064072427 69.66794188392916 -2 0 0
6971 2324 2 -0.35 10.178683020260085 14.667621792393915 73.02728738568003 -2 3 -1
5280 1760 2 -0.35 15.199415078214498 14.619170186588528 68.528711759059 0 -1 0
2187 729 2 -0.35 17.9464729733443 10.166463273269425 70.99078119049038 -1 -1 0
2185 729 1 0.7 17.13343884580244 10.61729271504252 71.63486799574358 -1 -1 0
6635 2212 2 -0.35 16.97983169494595 17.797553005870263 72.10774816851564 0 2 1
6634 2212 1 0.7 17.287398998510724 17.2293347763203 71.13759929378936 0 2 1
1973 658 2 -0.35 14.540102246424036 18.812693087141852 73.38891078751941 -1 0 0
155 52 2 -0.35 15.092738815342884 15.836746636320242 74.78253244742187 1 0 0
6636 2212 2 -0.35 17.674708862160706 16.6766822742445 70.18141007324496 0 2 1
156 52 2 -0.35 15.234142861948495 15.333096175273058 72.51389677670278 1 0 0
154 52 1 0.7 15.18750937572348 15.602732775142742 73.64926860694649 1 0 0
2039 680 2 -0.35 11.253131738569806 17.535089203945244 71.38364804706438 0 0 0
1367 456 2 -0.35 11.723020662713672 17.428678087764617 75.33132704514153 0 -1 0
2346 782 2 -0.35 14.658506127752416 19.148910477323312 69.16373045464383 2 1 0
1366 456 1 0.7 12.383386330618082 17.978132556175712 76.1103160421951 0 -1 0
1972 658 1 0.7 15.019178745167403 19.793518716951198 72.898715861102 -1 0 0
2344 782 1 0.7 14.489923732344767 19.719868582359883 68.16265659921717 2 1 0
6012 2004 2 -0.35 6.451556654774978 8.28234800868605 77.08850729471361 1 1 0
6010 2004 1 0.7 6.987986507918081 7.240877600142861 77.18867611098861 1 1 0
6011 2004 2 -0.35 7.526604178466223 6.225027780967924 77.42710254827045 1 1 0
849 283 2 -0.35 4.79893258697939 2.6596184090447372 78.44480028901594 0 0 0
847 283 1 0.7 4.813535498201558 3.1236775658531 77.38642015722388 0 0 0
3646 1216 1 0.7 3.1380471648767876 8.835273120500243 84.54523504166929 5 0 0
1550 517 2 -0.35 9.95820355661287 4.372243550665459 78.40005792655262 0 1 0
3648 1216 2 -0.35 2.312879972515293 8.070543320709627 84.44419008002356 5 0 0
5698 1900 1 0.7 8.456935047539474 3.2788196283308855 82.21574473668367 -2 0 0
7023 2341 2 -0.35 2.4107014359343593 7.736209309408139 79.55278459402997 -3 -4 1
7021 2341 1 0.7 3.1128873859775474 8.336373739053482 80.26876961942006 -3 -4 1
7022 2341 2 -0.35 3.833858637167373 8.944925690488597 80.96048921558435 -3 -4 1
5700 1900 2 -0.35 7.889108254509023 4.014628524585749 82.89936153367528 -2 0 0
5699 1900 2 -0.35 8.951457514164112 2.4651091720104343 81.5820203822312 -2 0 0
2179 727 1 0.7 0.9796451836789433 4.027065790522971 79.97778879035822 1 2 0
3751 1251 1 0.7 1.8861758307470187 5.2184764367079275 83.9548709484891 2 1 0
2181 727 2 -0.35 2.0182264741284586 4.153818178484558 79.50208258875921 1 2 0
3753 1251 2 -0.35 1.6718284971254542 5.594878855126869 82.89631228418374 2 1 0
5516 1839 2 -0.35 2.380417491607088 0.3980286166366808 82.63313764590332 0 1 0
2448 816 2 -0.35 9.022327662445353 6.618963508955504 80.62033319947507 -2 1 0
3752 1251 2 -0.35 2.14917010549937 4.863190480967706 85.05283921395352 2 1 0
2446 816 1 0.7 8.172196512291956 7.254229280046838 81.12711613159051 -2 1 0
2447 816 2 -0.35 7.236213832014378 7.815331084898478 81.4359051048499 -2 1 0
3647 1216 2 -0.35 3.8928048212213873 9.704003374265838 84.68018852501395 5 0 0
6825 2275 2 -0.35 5.809011996483843 5.968354177994875 84.54234821905686 1 2 0
3528 1176 2 -0.35 7.627917882416586 0.13302824273906863 78.92319327839063 1 1 0
3998 1333 2 -0.35 0.4642166353745475 8.540146997898725 81.79693244100054 1 0 0
5387 1796 2 -0.35 0.372186040095401 0.5896100368474569 78.85320446332331 1 2 0
3526 1176 1 0.7 8.779588665170253 0.07320921546664513 79.12533704142734 1 1 0
3527 1176 2 -0.35 9.905826155922291 0.05577808835243303 79.3246157654835 1 1 0
7045 2349 1 0.7 11.451197302329257 9.794564673960002 76.70351969950373 -7 -7 1
5062 1688 1 0.7 12.0280543009632 1.0469185132483794 77.14323580303932 6 7 1
1551 517 2 -0.35 11.458364323000927 5.82307612755884 77.38917835812865 0 1 0
1549 517 1 0.7 10.666190429883372 5.112561915110563 77.88105283127912 0 1 0
5732 1911 2 -0.35 15.5951143883983 1.1541052054994225 77.08313130747547 1 2 0
7047 2349 2 -0.35 11.355618189883664 9.84483116007923 77.87288864865124 -7 -7 1
3571 1191 1 0.7 13.803764987052165 0.17501852085257477 83.31569949006706 -2 7 0
5731 1911 1 0.7 15.982037068785868 0.313614934686539 77.80641189609008 1 2 0
1062 354 2 -0.35 12.159947490620873 3.786929752848968 80.43658162312674 0 2 0
5064 1688 2 -0.35 11.800234816490496 2.0781987737307803 77.58998284039423 6 7 1
5202 1734 2 -0.35 14.389931558582862 5.429427899737702 78.01026542348328 0 2 0
5200 1734 1 0.7 14.666077569848584 5.120147414926501 76.94911288370872 0 2 0
2970 990 2 -0.35 12.625033226702778 7.019461820482844 80.34999197875412 0 1 0
2968 990 1 0.7 13.564999516160569 6.8644558742433235 81.03962088915014 0 1 0
1061 354 2 -0.35 13.17540037961649 1.7720092864516372 79.93303212190779 0 2 0
1060 354 1 0.7 12.695458472142908 2.785713152119037 80.1973086118671 0 2 0
2468 823 2 -0.35 17.94348943132445 9.22373118372896 79.0408957140371 -1 2 0
2467 823 1 0.7 17.475972830239563 8.295032737956054 78.53409070758934 -1 2 0
2469 823 2 -0.35 16.984424300059636 7.287691483972855 78.15188335531585 -1 2 0
6129 2043 2 -0.35 18.577222495334617 7.276465496928325 83.6887956806688 -2 1 1
6127 2043 1 0.7 18.36642491151637 7.279846224055313 82.54873634609834 -2 1 1
6128 2043 2 -0.35 18.028774199221417 7.214878858301903 81.45236062900074 -2 1 1
2969 990 2 -0.35 14.480162181115503 6.7055553505415135 81.72902477968243 0 1 0
2613 871 2 -0.35 17.81501889813771 4.339243128640951 82.70248351890409 0 2 0
2611 871 1 0.7 16.932264573966687 4.086365981002336 82.00320203003032 0 2 0
2612 871 2 -0.35 15.950654780768103 3.9700862348324737 81.35685658493786 0 2 0
4101 1367 2 -0.35 15.534867005004557 5.613900873750878 84.61561946275543 1 0 0
7036 2346 1 0.7 11.934301966379248 8.57763209753753 84.16997236571372 1 -1 1
4084 1362 1 0.7 11.670912244405521 4.003695777884367 84.06443349664004 -1 0 0
4085 1362 2 -0.35 11.464219520964704 2.986787802232004 83.52352095330146 -1 0 0
7038 2346 2 -0.35 11.877538520027732 8.089233203558065 83.14460065000551 1 -1 1
4086 1362 2 -0.35 11.954057065670705 5.023518105053288 84.58331096405877 -1 0 0
3573 1191 2 -0.35 13.598168374550257 0.42239721804047253 84.40205931842162 -2 7 0
203 68 2 -0.35 19.970061375348173 9.822963140587113 83.56350614220378 11 -8 0
3227 1076 2 -0.35 16.174431792273477 9.693025836621528 82.15364976779804 0 1 0
2412 804 2 -0.35 14.613236635177351 9.767897718978544 79.62414168839486 2 0 0
3667 1223 1 0.7 17.07553569437508 1.615117813140806 84.6556707584274 2 0 1
3669 1223 2 -0.35 16.252811268401512 1.8139776917617345 83.87324398931283 2 0 1
4343 1448 2 -0.35 19.51099177072542 1.892446717194336 82.04975161799413 0 0 0
6775 2259 1 0.7 5.886425038470687 14.329017710977245 76.82215512147523 -4 2 1
6776 2259 2 -0.35 5.542828559346379 15.391003094128966 76.67164891393708 -4 2 1
2403 801 2 -0.35 0.9204972098824592 15.138652429215613 77.0203464144676 1 -4 0
2078 693 2 -0.35 4.784588316215965 10.724157595115662 77.4820782278322 1 1 0
6777 2259 2 -0.35 6.171867434254575 13.275435935434823 77.1423027491061 -4 2 1
2748 916 2 -0.35 1.4560060008878453 18.909176481202017 81.57138835474335 -1 3 0
3570 1190 2 -0.35 7.314855810185695 10.550916396023844 79.50306889081416 12 6 0
1595 532 2 -0.35 7.001275997531737 19.09488704887699 77.61993101539566 0 4 1
2401 801 1 0.7 1.9997574445628397 14.964182988538468 77.49228861336975 1 -4 0
1879 627 1 0.7 0.784591243223284 13.669712495325443 81.79855049351852 0 0 0
3568 1190 1 0.7 7.935826143768997 10.489374359468798 78.51285277093623 12 6 0
3569 1190 2 -0.35 8.567074424742502 10.462398706299687 77.51336122864181 12 6 0
3827 1276 2 -0.35 5.942421035204747 14.511441718655256 80.12417295287362 0 0 0
3826 1276 1 0.7 5.1813151354086155 13.64311692199455 80.11453267074756 0 0 0
1881 627 2 -0.35 0.8496438399340758 13.69034767629465 80.6362632834306 0 0 0
3828 1276 2 -0.35 4.3878400635062045 12.859667119892283 79.9549126405205 0 0 0
5622 1874 2 -0.35 6.585886867168092 11.953273375266534 83.73395320021727 1 3 0
5620 1874 1 0.7 7.656637799106209 11.531471212319037 83.57673845047886 1 3 0
5621 1874 2 -0.35 8.720624895262208 11.221127323561982 83.23097573778956 1 3 0
5693 1898 2 -0.35 5.549263686011473 17.206335449113972 82.4410697262823 -2 -2 0
5692 1898 1 0.7 5.368308682337432 18.028092875583997 81.66082344171211 -2 -2 0
453 151 2 -0.35 4.361184707795244 14.528596596977081 84.49629523804195 -1 1 0
5694 1898 2 -0.35 5.189883452459419 18.88140125467577 80.93668251832254 -2 -2 0
5218 1740 1 0.7 9.622281690528215 15.096061115558587 78.69864633143463 -1 1 0
722 241 2 -0.35 2.768297959693689 17.66407787068062 83.6351368635791 0 0 0
5219 1740 2 -0.35 8.587327105298764 14.611172158227179 78.68133068159206 -1 1 0
860 287 2 -0.35 9.002448458599929 14.727904004877592 82.98932424190727 -2 2 0
424 142 1 0.7 2.5489730281770107 18.888503379850018 76.86022682884074 5 10 0
1880 627 2 -0.35 0.8620201116613824 13.59862099760461 82.977963369837 0 0 0
1304 435 2 -0.35 8.292549085273945 19.308149948802043 81.72526112612601 -1 -1 0
2746 916 1 0.7 0.6735566612786826 18.039412717056965 81.54814278773381 -1 3 0
859 287 1 0.7 9.006293706306852 15.579546127901578 82.19781409180582 -2 2 0
2402 801 2 -0.35 3.0893348110877623 14.770719464890174 77.92342478972373 1 -4 0
861 287 2 -0.35 9.116309205104038 16.373287614166085 81.33852603183772 -2 2 0
451 151 1 0.7 5.4853497623010785 14.655053311595609 84.69546507640527 -1 1 0
721 241 1 0.7 3.3675005705944825 17.87041092472576 84.58299944961752 0 0 0
452 151 2 -0.35 6.602246209966439 14.85791365964608 84.85802036045304 -1 1 0
1341 447 2 -0.35 7.3030574351072985 17.774211786832325 85.01895631960154 -5 -2 1
425 142 2 -0.35 2.6243536869947404 19.73619505710491 77.68021995423952 5 10 0
5562 1854 2 -0.35 11.901275981362492 13.102478548481919 76.85765985420308 -2 1 0
202 68 1 0.7 19.159565641454623 10.0093028328137 84.38343136628437 11 -8 0
5252 1751 2 -0.35 10.866813192806923 13.17916069972787 81.15633035427757 1 1 0
2484 828 2 -0.35 17.682503773012634 15.633268731352999 79.3128339703141 -3 2 0
2411 804 2 -0.35 14.881721104773558 10.918344898630828 77.63003714948275 2 0 0
5561 1854 2 -0.35 13.226602971409655 14.9603209611169 77.21293079179704 -2 1 0
5560 1854 1 0.7 12.53636299901111 14.02243950636535 77.12291438906328 -2 1 0
1866 622 2 -0.35 16.188012990492453 18.45294433853792 77.1624268035674 4 7 1
3226 1076 1 0.7 15.193032772153659 10.215927236722923 82.48711694397868 0 1 0
5220 1740 2 -0.35 10.74116775122934 15.461267233504469 78.69241356147135 -1 1 0
5251 1751 1 0.7 10.88707438037237 12.038075499857253 81.37877504146483 1 1 0
3228 1076 2 -0.35 14.200991516063876 10.761185266153596 82.688511891598 0 1 0
5253 1751 2 -0.35 11.026204315522063 10.918766762714881 81.61194900108266 1 1 0
2482 828 1 0.7 17.4754857063717 14.504017795052931 79.3875417892579 -3 2 0
2483 828 2 -0.35 17.300388007570426 13.35986906916462 79.2985868642613 -3 2 0
6218 2073 2 -0.35 18.20729554043852 14.61183975529372 84.68848841303041 -1 0 0
2410 804 1 0.7 14.77982496954253 10.35985526508237 78.61862129692898 2 0 0
3455 1152 2 -0.35 14.400730770068613 14.895727901495746 80.31800180181234 1 -3 0
5434 1812 1 0.7 15.38339753089405 18.383720021522052 81.12485569426656 -1 1 0
3454 1152 1 0.7 13.9318930776334 13.929053039056225 79.87687926759806 1 -3 0
3456 1152 2 -0.35 13.563360094147239 12.905533308175288 79.46130018378393 1 -3 0
5436 1812 2 -0.35 16.43288464794751 18.239431145090627 81.61730362619375 -1 1 0
1368 456 2 -0.35 13.078581673793135 18.52006251091059 76.89677824969809 0 -1 0
5435 1812 2 -0.35 14.406234548374401 18.673910695631584 80.6170929824734 -1 1 0
665 222 2 -0.35 10.649003633535123 18.579413023680964 79.51559612533997 -7 0 0
664 222 1 0.7 11.10765216117593 18.59003787902663 80.58647743809686 -7 0 0
6217 2073 1 0.7 17.427743981262502 13.808969208325143 84.38922484810027 -1 0 0
6219 2073 2 -0.35 16.587931578457848 13.085602321202572 84.01791889015716 -1 0 0
2178 726 2 -0.35 19.54598042672159 12.856751398216408 82.07585950311524 -1 1 0
666 222 2 -0.35 11.510984473159729 18.54293011094942 81.68558610570281 -7 0 0
3000 1000 2 -0.35 12.306466241292354 14.734809121111105 82.93757110238363 -1 1 0
2998 1000 1 0.7 12.28450022754912 13.971117781627274 83.78690740474423 -1 1 0
4035 1345 2 -0.35 10.095829089491513 18.23085258068763 84.45265593810117 0 1 0
4033 1345 1 0.7 11.033114415256588 17.746803721778257 84.94959988345421 0 1 0
1191 397 2 -0.35 19.770505635745373 16.975566085959365 82.34879665543484 -1 0 0
4691 1564 2 -0.35 19.33643836404801 19.382722148847808 78.19413103832335 2 1 1
2999 1000 2 -0.35 12.226275324630759 13.1793057870839 84.62154529892854 -1 1 0
4690 1564 1 0.7 19.85667234125514 18.61809672117158 78.90596823306825 2 1 1
4096 1366 1 0.7 19.600136624438136 19.354811758012644 84.64004565296833 1 0 0
1864 622 1 0.7 15.892999403925863 19.5551283448737 76.94529008222317 4 7 1
4098 1366 2 -0.35 18.529886067586123 19.79722380673163 84.83148378005839 1 0 0
1698 566 2 -0.35 4.607294097989861 1.371131493143087 85.64122534115155 0 2 0
6824 2275 2 -0.35 7.144275386974068 4.701465932622809 85.95519229852455 1 2 0
6823 2275 1 0.7 6.466819292284121 5.312088800515521 85.24133887134023 1 2 0
6288 2096 2 -0.35 0.8569800378459687 8.003286065578655 87.56029250141624 0 1 0
1115 372 2 -0.35 4.458650274222498 4.357931893623141 87.2310316466805 2 4 1
2381 794 2 -0.35 6.449669923603584 0.3295138842030762 91.181537775752 1 1 0
1114 372 1 0.7 3.374003579738222 4.335025461043083 87.665911275767 2 4 1
1696 566 1 0.7 5.73946808147919 1.097974749643214 85.76159622772995 0 2 0
1116 372 2 -0.35 2.2846274097945076 4.37321524152024 88.03469865717634 2 4 1
1697 566 2 -0.35 6.867637798650001 0.8371541584277252 86.00411639061898 0 2 0
6602 2201 2 -0.35 3.6575623579960643 1.8194768837713697 89.74892422363996 16 0 1
6601 2201 1 0.7 3.4173352773573185 2.4032887726529473 90.74553365321835 16 0 1
5109 1703 2 -0.35 1.2512016470120986 6.1839636993909375 90.08800056777159 -1 -2 0
5107 1703 1 0.7 0.2734584379723042 5.665804755389855 89.7692897105017 -1 -2 0
5292 1764 2 -0.35 3.667774764309626 9.416464287500343 88.26729173551341 0 1 0
5290 1764 1 0.7 3.7431603870555645 8.461689048618886 87.62395033231712 0 1 0
2735 912 2 -0.35 4.761954925452364 5.777080747659773 90.9586692434651 -2 -4 1
2734 912 1 0.7 4.4834236702998265 5.738149458533649 92.08257415955002 -2 -4 1
2736 912 2 -0.35 4.254915151067733 5.74614175934265 93.19424871934298 -2 -4 1
6603 2201 2 -0.35 3.0991738881697417 3.0077410078634492 91.68352426682328 16 0 1
6915 2305 2 -0.35 6.955193005630427 7.6496491698539915 88.16877841706226 -2 -4 -1
6913 2305 1 0.7 6.957543570577757 8.27138351692722 87.17996392517696 -2 -4 -1
5291 1764 2 -0.35 3.759713636003127 7.491868413626505 87.01327777095736 0 1 0
162 54 2 -0.35 7.2182037410638245 3.487801908068203 91.40180599968973 -2 0 0
160 54 1 0.7 7.613925602814444 4.214129324039387 90.59432012077944 -2 0 0
1152 384 2 -0.35 9.633684959330921 2.052663574109408 92.61735542993476 0 1 0
3432 1144 2 -0.35 1.6669966711791109 7.9494809915079 93.53262372713483 1 3 0
161 54 2 -0.35 7.965702740393558 4.907858653527882 89.73721489794204 -2 0 0
3284 1095 2 -0.35 8.177989989816833 2.294573161239796 88.58688163040742 0 0 0
1150 384 1 0.7 8.900472656050955 1.4675356994533537 93.33317221993848 0 1 0
5504 1835 2 -0.35 7.215831486747875 7.666963842187227 92.07155640014719 1 0 0
2583 861 2 -0.35 0.0036127090017763035 9.817750587944662 90.03881902896285 2 0 0
3283 1095 1 0.7 9.055100514406547 2.458311503867447 87.83795939867382 0 0 0
5503 1835 1 0.7 7.556538168473773 8.084319018336831 93.10750557100084 1 0 0
6914 2305 2 -0.35 7.025970156063296 8.882891933632578 86.19876787082524 -2 -4 -1
3285 1095 2 -0.35 10.020808407274902 2.6382708798534966 87.18076608829162 0 0 0
2336 779 2 -0.35 9.728509821371908 6.386652079601197 87.36564972776708 0 2 0
65 22 2 -0.35 0.020179257494341386 1.2457502584325948 86.31168984813517 -1 2 0
6286 2096 1 0.7 0.16832548298709002 7.649539389961232 86.69169475993631 0 1 0
5690 1897 2 -0.35 18.628339495936174 3.510404818992918 91.71394876236833 -1 0 0
7037 2346 2 -0.35 11.953108637171386 9.094073098496123 85.19981592974429 1 -1 1
5691 1897 2 -0.35 19.712749480143408 3.1279006469790827 89.73252143494226 -1 0 0
4099 1367 1 0.7 14.743516651704521 6.257832652713134 85.23231950843339 1 0 0
5689 1897 1 0.7 19.203610220518993 3.381070132299433 90.72902152573302 -1 0 0
2819 940 2 -0.35 12.542185378074578 3.3109671346577096 92.11031199315372 0 0 0
1356 452 2 -0.35 10.48379847589602 9.80407091381474 88.0996177199293 0 -3 0
4384 1462 1 0.7 15.046300683869898 1.8659645094840989 92.1589017555367 -2 0 0
2335 779 1 0.7 10.690144932029064 6.552114497887848 88.03526820962966 0 2 0
3687 1229 2 -0.35 13.858844563966706 3.3603905777367 86.55908800049065 1 0 0
3685 1229 1 0.7 13.436366999531316 2.49056533210733 87.17837312197321 1 0 0
3668 1223 2 -0.35 17.86615930532445 1.4732572495105112 85.49364320714571 2 0 1
2337 779 2 -0.35 11.679855011350766 6.557051527120118 88.68570910073986 0 2 0
4167 1389 2 -0.35 16.308704189405894 2.5904885625224723 88.17978039110517 1 1 0
384 128 2 -0.35 11.867262242449481 0.6479501269517127 90.55103482556764 0 1 0
2818 940 1 0.7 11.82469444980615 3.585124114559533 91.23758496960133 0 0 0
2820 940 2 -0.35 11.111774000430103 3.9268429409590055 90.38212285047787 0 0 0
4166 1389 2 -0.35 17.27536988221849 1.0277801336216763 89.63983437429927 1 1 0
4165 1389 1 0.7 16.795246514268612 1.8208998530014813 88.91504345110746 1 1 0
2717 906 2 -0.35 11.606572427334996 7.631984211206766 92.07462858985511 0 1 0
2716 906 1 0.7 11.897642695331477 8.52589398104184 91.39892282264218 0 1 0
2718 906 2 -0.35 12.1722273507231 9.429730480577266 90.71910611188001 0 1 0
4100 1367 2 -0.35 14.08774176571248 6.947893198265343 85.87335808074958 1 0 0
3686 1229 2 -0.35 12.962449198176929 1.6179078320184428 87.80002569247986 1 0 0
4860 1620 2 -0.35 17.55535622060257 5.516935097910624 89.23486957737511 1 -1 0
4385 1462 2 -0.35 15.21278516695652 2.6418374925539405 91.32337845741168 -2 0 0
4859 1620 2 -0.35 15.352772915858752 6.0288366183841156 88.65948559292782 1 -1 0
4858 1620 1 0.7 16.434898161868073 5.783497144505063 89.03324568286854 1 -1 0
1458 486 2 -0.35 15.454666266673836 7.333195999971769 92.91824686523621 -2 0 0
1604 535 2 -0.35 17.712673185354348 8.511400444349555 88.49511847035512 -1 0 0
4386 1462 2 -0.35 14.783376340265306 1.1058985410867386 92.9650847642187 -2 0 0
1830 610 2 -0.35 14.950093275521624 9.938361645965832 85.60627006980482 -1 0 0
1603 535 1 0.7 17.682770918013286 9.645200358374662 88.4175874191983 -1 0 0
1457 486 2 -0.35 16.608927503588255 9.347192586692458 93.23489153699384 -2 0 0
1456 486 1 0.7 16.04647964510484 8.319426898619545 93.08154833626517 -2 0 0
816 272 2 -0.35 19.99180595386691 0.6248716256798703 91.5679557836076 4 -1 -1
5363 1788 2 -0.35 1.1902992756676718 12.792738127282682 92.54325330298062 1 -1 0