LAMMPS (29 Aug 2024 - Update 1)
  using 1 OpenMP thread(s) per MPI task
using multi-threaded neighbor list subroutines
Created orthogonal box = (0 0 0) to (40 40 240)
  2 by 2 by 2 MPI processor grid
Read molecule template co2mol:
# CO2 molecule file. TraPPE-Flex model.
  1 molecules
  0 fragments
  3 atoms with max type 2
  2 bonds with max type 1
  1 angles with max type 1
  0 dihedrals with max type 0
  0 impropers with max type 0
Molecule file loaded successfully
Created 6894 atoms
  using lattice units in orthogonal box = (0 0 0) to (40 40 240)
  create_atoms CPU = 0.264 seconds
Created 78 atoms
  using lattice units in orthogonal box = (0 0 0) to (40 40 240)
  create_atoms CPU = 0.001 seconds
Created 78 atoms
  using lattice units in orthogonal box = (0 0 0) to (40 40 240)
  create_atoms CPU = 0.001 seconds
Setting atom values ...
  2350 settings made for charge
Setting atom values ...
  4700 settings made for charge
lz=240
2350 atoms in group car
4700 atoms in group oxy
Balancing ...
PPPM initialization ...
  using 12-bit tables for long-range coulomb (src/kspace.cpp:342)
  G vector (1/distance) = 0.20169663
  grid = 24 24 80
  stencil order = 5
  estimated absolute RMS force accuracy = 0.00286774
  estimated relative force accuracy = 8.6361139e-06
  using single precision FFTW3
  3d grid and FFT values/proc = 16606 5760
Generated 1 of 1 mixed pair_coeff terms from arithmetic mixing rule
Last active /omp style is kspace_style pppm/omp
Neighbor list info ...
  update: every = 1 steps, delay = 0 steps, check = yes
  max neighbors/atom: 2000, page size: 100000
  master list distance cutoff = 17
  ghost atom cutoff = 17
  binsize = 8.5, bins = 5 5 29
  1 neighbor lists, perpetual/occasional/extra = 1 0 0
  (1) pair lj/cut/coul/long/omp, perpetual
      attributes: half, newton on, omp
      pair build: half/bin/newton/omp
      stencil: half/bin/3d
      bin: standard
 rebalancing time: 0.007 seconds
  iteration count = 4
  initial/final maximal load/proc = 918 962
  initial/final imbalance factor  = 1.0417021 1.0916312
  x cuts: 0 0.46875 1
  y cuts: 0 0.5 1
  z cuts: 0 0.5 1
PPPM initialization ...
  using 12-bit tables for long-range coulomb (src/kspace.cpp:342)
  G vector (1/distance) = 0.20169663
  grid = 24 24 80
  stencil order = 5
  estimated absolute RMS force accuracy = 0.00286774
  estimated relative force accuracy = 8.6361139e-06
  using single precision FFTW3
  3d grid and FFT values/proc = 17480 6240
Generated 1 of 1 mixed pair_coeff terms from arithmetic mixing rule
Last active /omp style is kspace_style pppm/omp
Setting up cg style minimization ...
  Unit style    : real
  Current step  : 0
Per MPI rank memory allocation (min/avg/max) = 10.49 | 10.74 | 10.98 Mbytes
   Step          Temp          E_pair         E_mol          TotEng         Press     
         0   0              49336.872      7.9026918e-12  49336.872      43177.231    
      1960   0             -11747.685      21.665769     -11726.02      -404.62692    
Loop time of 49.0835 on 8 procs for 1960 steps with 7050 atoms

99.4% CPU use with 8 MPI tasks x 1 OpenMP threads

Minimization stats:
  Stopping criterion = energy tolerance
  Energy initial, next-to-last, final = 
      49336.8715484438  -11726.0079152313  -11726.0195228993
  Force two-norm initial, final = 12256.268 5.8693544
  Force max component initial, final = 805.65186 1.6694694
  Final line search alpha, max atom move = 0.071027032 0.11857746
  Iterations, force evaluations = 1960 3856

MPI task timing breakdown:
Section |  min time  |  avg time  |  max time  |%varavg| %total
---------------------------------------------------------------
Pair    | 30.194     | 35.671     | 43.882     |  72.2 | 72.67
Bond    | 0.098073   | 0.10458    | 0.11478    |   1.8 |  0.21
Kspace  | 3.8998     | 12.133     | 17.633     | 124.0 | 24.72
Neigh   | 0.35618    | 0.3567     | 0.35727    |   0.1 |  0.73
Comm    | 0.62713    | 0.65543    | 0.68867    |   2.6 |  1.34
Output  | 0          | 0          | 0          |   0.0 |  0.00
Modify  | 0.031992   | 0.034918   | 0.036548   |   0.8 |  0.07
Other   |            | 0.1278     |            |       |  0.26

Nlocal:         881.25 ave         983 max         821 min
Histogram: 2 2 0 1 1 0 0 0 1 1
Nghost:        8237.12 ave        8743 max        7753 min
Histogram: 2 0 0 1 1 0 2 0 1 1
Neighs:         462201 ave      567293 max      397371 min
Histogram: 2 1 0 2 1 0 0 1 0 1

Total # of neighbors = 3697610
Ave neighs/atom = 524.48369
Ave special neighs/atom = 2
Neighbor list builds = 25
Dangerous builds = 0
System init for write_data ...
PPPM initialization ...
  using 12-bit tables for long-range coulomb (src/kspace.cpp:342)
  G vector (1/distance) = 0.20169663
  grid = 24 24 80
  stencil order = 5
  estimated absolute RMS force accuracy = 0.00286774
  estimated relative force accuracy = 8.6361139e-06
  using single precision FFTW3
  3d grid and FFT values/proc = 17480 6240
Generated 1 of 1 mixed pair_coeff terms from arithmetic mixing rule
Last active /omp style is kspace_style pppm/omp
#Step Pxx Pyy Pzz
#Step temp press ke pe etotal ecouple econserve
#Step px py pz COM_vx COM_vy COM_vz
PPPM initialization ...
  using 12-bit tables for long-range coulomb (src/kspace.cpp:342)
  G vector (1/distance) = 0.20169663
  grid = 24 24 80
  stencil order = 5
  estimated absolute RMS force accuracy = 0.00286774
  estimated relative force accuracy = 8.6361139e-06
  using single precision FFTW3
  3d grid and FFT values/proc = 17480 6240
Generated 1 of 1 mixed pair_coeff terms from arithmetic mixing rule
Last active /omp style is kspace_style pppm/omp
Setting up Verlet run ...
  Unit style    : real
  Current step  : 0
  Time step     : 0.5
Per MPI rank memory allocation (min/avg/max) = 10.03 | 10.21 | 10.46 Mbytes
   Step         TotEng         Press           Temp            Dt      
         0  -7103.4389      145.65611      220            0.5          
      1000  -3070.1671      1129.0207      216.06177      0.5          
      2000  -2459.4081      1342.6451      198.27941      0.5          
      3000  -2025.357      -301.55179      211.17212      0.5          
      4000  -1882.0332     -206.28029      226.5169       0.5          
      5000  -1782.501      -90.852037      223.96864      0.5          
      6000  -1575.1886      107.36694      217.27476      0.5          
      7000  -1519.9421     -129.3202       213.34455      0.5          
      8000  -1392.1324     -282.31242      216.27778      0.5          
      9000  -1146.0323      16.65982       221.35921      0.5          
     10000  -971.82059     -191.23078      217.33902      0.5          
     11000  -741.25697     -8.245398       222.06073      0.5          
     12000  -769.74581     -377.07652      215.0007       0.5          
     13000  -559.0215      -35.36667       223.06454      0.5          
     14000  -485.3845      -57.922322      221.54818      0.5          
     15000  -435.21594     -319.63756      218.18062      0.5          
     16000  -469.86032     -29.077045      221.25705      0.5          
     17000  -459.00786      27.585481      220.71447      0.5          
     18000  -501.15343     -159.15632      218.29138      0.5          
     19000  -478.80823      216.97757      217.8329       0.5          
     20000  -502.15434      7.8382952      218.25957      0.5          
     21000  -626.28532     -320.62776      218.45122      0.5          
     22000  -621.25485     -206.05799      219.15137      0.5          
     23000  -671.81561      402.82211      217.6171       0.5          
     24000  -675.30901      146.53189      218.94937      0.5          
     25000  -641.29682     -300.21173      220.71717      0.5          
     26000  -685.32987      77.676538      222.81084      0.5          
     27000  -785.96613     -41.87432       220.47036      0.5          
     28000  -887.80675      2.8567529      217.95165      0.5          
     29000  -926.13308      60.892779      220.74114      0.5          
     30000  -1016.504       40.843624      218.53381      0.5          
     31000  -800.85585     -133.35768      221.10045      0.5          
     32000  -935.13866      57.634636      216.60474      0.5          
     33000  -925.02439      36.550676      217.47835      0.5          
     34000  -735.65071     -84.177793      224.75634      0.5          
     35000  -840.79306      156.8886       217.38363      0.5          
     36000  -911.14243     -98.769616      216.73826      0.5          
     37000  -870.67103     -97.49106       220.73982      0.5          
     38000  -721.2254       26.138547      220.82991      0.5          
     39000  -751.14581      17.012799      220.1612       0.5          
     40000  -773.83782     -165.87089      221.01326      0.5          
     41000  -725.73312      110.67824      220.69084      0.5          
     42000  -722.23343      38.793784      222.89571      0.5          
     43000  -637.36792      30.43476       225.71119      0.5          
     44000  -759.8505       61.347892      217.97552      0.5          
     45000  -750.88383      116.89376      220.55135      0.5          
     46000  -715.66731     -20.909694      222.75928      0.5          
     47000  -718.64602     -286.39601      222.88075      0.5          
     48000  -776.67928     -25.104944      220.81269      0.5          
     49000  -875.3145       38.301807      219.99941      0.5          
     50000  -832.94296      140.7776       221.61368      0.5          
     51000  -958.02024     -185.63816      217.68963      0.5          
     52000  -911.84474     -273.68         219.56889      0.5          
     53000  -933.36328      145.53395      218.6153       0.5          
     54000  -853.17553      70.908257      221.5927       0.5          
     55000  -1021.4606     -46.681649      217.49266      0.5          
     56000  -1001.4453      164.54716      223.52902      0.5          
     57000  -916.96753     -85.880524      221.74628      0.5          
     58000  -894.64967      222.00994      222.29874      0.5          
     59000  -974.98717      36.567992      218.36921      0.5          
     60000  -1050.269      -78.95803       215.17475      0.5          
     61000  -977.03623     -166.60307      221.34439      0.5          
     62000  -1040.3825      134.29433      217.52202      0.5          
     63000  -1103.0535      119.07137      217.00892      0.5          
     64000  -927.88298      117.14676      225.84682      0.5          
     65000  -1099.9282      169.5211       220.78304      0.5          
     66000  -1213.2433      150.00766      216.63795      0.5          
     67000  -1317.9448      74.067982      215.83738      0.5          
     68000  -1325.6838     -154.46117      217.80433      0.5          
     69000  -1243.6121      166.89874      221.36201      0.5          
     70000  -1178.7155      53.939714      223.21928      0.5          
     71000  -1184.4077      209.29368      223.52163      0.5          
     72000  -1282.0545      283.93687      217.94123      0.5          
     73000  -1255.4051      276.1236       216.80578      0.5          
     74000  -1149.8215      16.721791      223.31661      0.5          
     75000  -1290.2679      137.97009      217.37292      0.5          
     76000  -1223.7877      155.55931      217.07583      0.5          
     77000  -1253.9729     -113.00218      215.88009      0.5          
     78000  -1136.8462      286.60998      216.49927      0.5          
     79000  -1099.4258     -5.7661004      218.12054      0.5          
     80000  -1041.0726     -308.0569       216.76171      0.5          
     81000  -1021.8816      71.355169      218.19357      0.5          
     82000  -860.94004     -178.16073      220.8771       0.5          
     83000  -893.49896      33.117533      219.41974      0.5          
     84000  -900.392        167.16232      217.16909      0.5          
     85000  -815.44845     -325.86848      218.45905      0.5          
     86000  -795.25897     -231.48071      215.56373      0.5          
     87000  -645.30839      130.92376      222.05992      0.5          
     88000  -632.3364      -187.84122      221.94612      0.5          
     89000  -725.2379      -273.44783      219.49437      0.5          
     90000  -705.83148      203.09344      216.06102      0.5          
     91000  -661.55017      2.6409169      219.83319      0.5          
     92000  -612.41202     -120.15522      220.96431      0.5          
     93000  -662.67067     -42.185809      219.63923      0.5          
     94000  -702.69889     -11.967344      219.01926      0.5          
     95000  -731.20395      192.73781      216.12799      0.5          
     96000  -742.45972     -219.10923      218.78038      0.5          
     97000  -669.90345     -141.33018      221.1524       0.5          
     98000  -668.5635      -42.70641       223.50504      0.5          
     99000  -757.91075     -297.82307      219.89806      0.5          
    100000  -826.79816      173.52201      218.96108      0.5          
    101000  -797.10721     -4.1868575      221.36541      0.5          
    102000  -843.61181     -30.866257      219.43967      0.5          
    103000  -712.48755      6.6325512      222.69322      0.5          
    104000  -843.04974      71.433269      219.80954      0.5          
    105000  -848.8147       14.12786       220.26048      0.5          
    106000  -957.23629     -90.223232      220.45646      0.5          
    107000  -979.86476     -239.89928      220.91952      0.5          
    108000  -1001.9009     -83.415901      222.22303      0.5          
    109000  -1075.4183      193.17765      220.0847       0.5          
    110000  -1092.282      -41.810289      220.6781       0.5          
    111000  -1021.243      -83.449504      220.24716      0.5          
    112000  -1069.7447      49.112519      218.94008      0.5          
    113000  -1211.4095      172.49591      215.86562      0.5          
    114000  -902.32262      101.67433      225.54501      0.5          
    115000  -1028.7001     -234.02908      220.13786      0.5          
    116000  -1000.7705      165.59209      222.63685      0.5          
    117000  -905.94327      226.05972      220.71782      0.5          
    118000  -1032.0574      117.45248      218.92844      0.5          
    119000  -998.47083      168.49204      221.56267      0.5          
    120000  -890.71837     -67.09899       224.04321      0.5          
    121000  -912.32469      134.78862      220.37756      0.5          
    122000  -975.35496      58.966337      218.54536      0.5          
    123000  -812.35798      155.93006      223.83931      0.5          
    124000  -888.55152     -81.403117      221.95464      0.5          
    125000  -922.42473     -147.33071      216.77853      0.5          
    126000  -892.6296       48.811274      219.72324      0.5          
    127000  -914.52729     -160.60628      217.90794      0.5          
    128000  -823.1002       72.246072      219.67589      0.5          
    129000  -889.6057       154.38468      215.84391      0.5          
    130000  -720.47008     -7.2332647      222.71672      0.5          
    131000  -645.17377      75.991723      224.57228      0.5          
    132000  -801.37607      99.667062      217.82521      0.5          
    133000  -811.97225      129.51702      216.74126      0.5          
    134000  -896.13435     -257.70056      216.68826      0.5          
    135000  -832.10091     -150.49929      218.57883      0.5          
    136000  -650.99539      159.24638      221.63811      0.5          
    137000  -714.49109      4.821993       222.36313      0.5          
    138000  -754.31078     -171.38611      220.02792      0.5          
    139000  -708.27886     -90.383904      223.13338      0.5          
    140000  -637.7763       39.930249      221.69028      0.5          
    141000  -838.74841      207.90411      218.6886       0.5          
    142000  -819.09165      202.26905      220.8368       0.5          
    143000  -868.05177     -87.98227       218.35735      0.5          
    144000  -731.81053      3.9965658      221.58131      0.5          
    145000  -860.79209      243.01278      218.44133      0.5          
    146000  -885.31461     -248.6798       219.02485      0.5          
    147000  -841.57744     -146.38322      219.55341      0.5          
    148000  -839.19809      67.901993      223.53536      0.5          
    149000  -779.47198     -52.294836      225.50719      0.5          
    150000  -923.82384      164.93151      218.83918      0.5          
    151000  -816.06348     -48.121704      223.26768      0.5          
    152000  -956.13654      181.63568      221.25267      0.5          
    153000  -1059.0699      103.15799      216.04891      0.5          
    154000  -1019.4815     -162.66877      218.42273      0.5          
    155000  -1021.4347      65.992971      220.02985      0.5          
    156000  -963.75261      241.4665       220.59138      0.5          
    157000  -1001.8772     -187.78808      217.73242      0.5          
    158000  -900.52901      160.61742      223.55988      0.5          
    159000  -1031.6551      137.39217      218.19306      0.5          
    160000  -1058.2039      156.02536      216.84824      0.5          
    161000  -1002.3231      45.545836      217.95628      0.5          
    162000  -911.85694      244.11042      223.00204      0.5          
    163000  -889.60153     -165.74335      221.55191      0.5          
    164000  -858.51158     -172.10725      222.45516      0.5          
    165000  -842.32752      162.1095       222.24377      0.5          
    166000  -897.52018     -254.1494       222.24333      0.5          
    167000  -950.35919      152.32102      218.34657      0.5          
    168000  -866.30988      123.38919      217.60938      0.5          
    169000  -725.52582     -53.145888      223.53268      0.5          
    170000  -854.96942     -243.35804      221.08827      0.5          
    171000  -875.82947      34.898568      221.02726      0.5          
    172000  -839.73357     -81.652611      222.97122      0.5          
    173000  -859.90186     -203.20172      218.90489      0.5          
    174000  -883.07262      72.574035      219.134        0.5          
    175000  -842.0043      -140.97902      223.40425      0.5          
    176000  -788.51835     -287.59775      221.26298      0.5          
    177000  -783.36148     -121.72555      218.3451       0.5          
    178000  -806.68995     -24.187733      219.12652      0.5          
    179000  -759.29422      81.663116      220.36392      0.5          
    180000  -810.57914      246.44372      219.20863      0.5          
    181000  -769.61461     -232.66758      218.83622      0.5          
    182000  -750.18258     -183.66107      219.3772       0.5          
    183000  -800.98623      138.92143      221.43567      0.5          
    184000  -767.99354     -60.204797      221.00431      0.5          
    185000  -787.46517     -81.081947      219.28005      0.5          
    186000  -682.41677     -12.18218       223.2629       0.5          
    187000  -805.59637      91.231913      217.11604      0.5          
    188000  -749.4014       136.25206      219.7815       0.5          
    189000  -820.02846      37.424096      221.45299      0.5          
    190000  -842.10199     -182.07889      217.55521      0.5          
    191000  -819.41074      76.999612      217.18811      0.5          
    192000  -789.79318     -89.653675      222.21606      0.5          
    193000  -696.42096      169.93643      221.72794      0.5          
    194000  -699.56961      9.5482947      223.62505      0.5          
    195000  -851.18779     -167.28228      216.80155      0.5          
    196000  -859.71053     -215.95636      219.15628      0.5          
    197000  -885.10151      95.202092      219.99897      0.5          
    198000  -806.01525      56.466405      220.50166      0.5          
    199000  -875.70106     -67.412739      219.21243      0.5          
    200000  -838.70844     -112.44796      221.03694      0.5          
    201000  -849.20019      65.744417      218.86627      0.5          
    202000  -868.40844     -93.195591      220.95204      0.5          
    203000  -890.95613     -69.287203      219.75355      0.5          
    204000  -929.9704       196.14183      217.66341      0.5          
    205000  -745.00534      53.160269      219.75301      0.5          
    206000  -710.85688     -89.585318      223.54268      0.5          
    207000  -934.10812     -147.14944      217.98495      0.5          
    208000  -893.96085     -23.246972      217.64909      0.5          
    209000  -932.53762      207.09954      215.30046      0.5          
    210000  -840.74806      114.27239      219.51807      0.5          
    211000  -892.61436     -158.28846      215.63785      0.5          
    212000  -790.79604     -96.173091      222.2375       0.5          
    213000  -820.8039       130.51642      218.64492      0.5          
    214000  -933.54736     -85.490505      218.00541      0.5          
    215000  -835.12546      130.87532      220.11226      0.5          
    216000  -885.84897      147.4702       218.39734      0.5          
    217000  -858.41671      33.151559      220.01866      0.5          
    218000  -838.40366      124.82375      222.51792      0.5          
    219000  -1011.5531     -35.794813      215.88496      0.5          
    220000  -913.82556     -132.64731      219.12737      0.5          
    221000  -867.8084       87.522823      219.97509      0.5          
    222000  -940.7335       22.100316      218.74315      0.5          
    223000  -875.81774     -108.85189      221.9387       0.5          
    224000  -878.62504     -49.751047      218.73359      0.5          
    225000  -820.65688      301.1939       222.15653      0.5          
    226000  -816.64343      94.176362      220.07129      0.5          
    227000  -780.96509     -173.45007      220.1648       0.5          
    228000  -954.67376      29.014283      217.61124      0.5          
    229000  -872.05549      43.055011      220.83736      0.5          
    230000  -852.14467     -95.922634      219.02139      0.5          
    231000  -838.48395      41.182962      218.88716      0.5          
    232000  -758.12109      77.337337      221.62029      0.5          
    233000  -788.85151     -2.9003983      222.00097      0.5          
    234000  -838.85498      42.558482      217.01988      0.5          
    235000  -748.79572     -41.039885      221.74471      0.5          
    236000  -723.87043     -57.531949      219.45082      0.5          
    237000  -821.32392      135.48412      217.64438      0.5          
    238000  -777.7487      -89.138483      221.01093      0.5          
    239000  -752.5346       166.14105      220.32185      0.5          
    240000  -751.72671     -135.24325      222.83893      0.5          
    241000  -694.03164     -154.60414      222.67586      0.5          
    242000  -810.13536     -87.842793      219.73458      0.5          
    243000  -754.83181     -49.549068      221.97098      0.5          
    244000  -745.70161      92.833052      219.0006       0.5          
    245000  -732.81507      1.7414042      224.32721      0.5          
    246000  -808.9291       18.653927      220.51608      0.5          
    247000  -773.52999     -16.491098      220.36153      0.5          
    248000  -825.45984     -94.300277      220.94342      0.5          
    249000  -772.57311     -198.44211      220.93117      0.5          
    250000  -691.80082     -186.74984      221.02857      0.5          
    251000  -809.94685      37.035269      219.69638      0.5          
    252000  -863.37137      207.80543      215.49635      0.5          
    253000  -767.88261      195.97768      220.5748       0.5          
    254000  -748.27973      80.065371      221.60275      0.5          
    255000  -870.81428     -97.295326      217.1488       0.5          
    256000  -765.07923     -103.62379      220.98193      0.5          
    257000  -709.69517     -72.727649      223.59077      0.5          
    258000  -816.7442       249.43155      220.44231      0.5          
    259000  -737.27419     -89.022492      219.89297      0.5          
    260000  -775.55994     -258.72749      219.38095      0.5          
    261000  -825.32603     -13.205567      220.31387      0.5          
    262000  -778.06814      124.69858      218.79845      0.5          
    263000  -780.57382      103.25149      221.88032      0.5          
    264000  -761.76756     -467.52883      223.6626       0.5          
    265000  -786.08946     -55.5066        222.57942      0.5          
    266000  -936.07151      29.728365      219.74379      0.5          
    267000  -908.1995      -82.245403      220.56282      0.5          
    268000  -850.11452     -159.1438       218.79471      0.5          
    269000  -831.27687      71.431348      219.78753      0.5          
    270000  -857.0548       46.145874      220.41123      0.5          
    271000  -727.77446     -130.07842      225.45526      0.5          
    272000  -861.95798     -238.42805      219.61855      0.5          
    273000  -907.98877      83.410043      217.71666      0.5          
    274000  -881.95182      129.48079      217.74295      0.5          
    275000  -839.31628     -71.498554      221.03858      0.5          
    276000  -877.15096     -7.8515317      218.8936       0.5          
    277000  -719.24426      219.91827      225.89668      0.5          
    278000  -850.01424     -137.77145      221.00128      0.5          
    279000  -862.76426      126.04674      220.37081      0.5          
    280000  -935.04333      92.742842      216.88201      0.5          
    281000  -799.73044     -283.44724      221.44482      0.5          
    282000  -954.67012     -101.53025      216.84342      0.5          
    283000  -785.45667      232.64066      220.25128      0.5          
    284000  -831.28079     -74.403898      218.52791      0.5          
    285000  -692.87255      54.964557      224.66268      0.5          
    286000  -861.03615      38.708697      217.22335      0.5          
    287000  -682.51258     -274.25851      224.09334      0.5          
    288000  -716.78387     -152.34695      220.40873      0.5          
    289000  -780.60425      50.42931       219.47049      0.5          
    290000  -845.97803      50.347165      218.77715      0.5          
    291000  -711.78969     -131.17932      221.59297      0.5          
    292000  -739.13069      185.25102      221.17308      0.5          
    293000  -828.02683      98.444138      219.52957      0.5          
    294000  -920.33194     -92.316805      217.16914      0.5          
    295000  -795.26778      204.58462      219.6872       0.5          
    296000  -797.65408      0.69048144     218.97505      0.5          
    297000  -861.95398     -75.68994       218.44226      0.5          
    298000  -860.80102     -188.12966      217.45798      0.5          
    299000  -919.423        92.094416      218.13939      0.5          
    300000  -754.83467      8.760084       224.42951      0.5          
    301000  -915.23878     -53.639846      218.08781      0.5          
    302000  -806.35824     -5.5222758      219.91614      0.5          
    303000  -861.64538      123.12092      219.75118      0.5          
    304000  -879.585        35.531835      218.31932      0.5          
    305000  -862.21771      82.635511      219.4969       0.5          
    306000  -898.49981     -211.97902      219.73978      0.5          
    307000  -976.08868     -104.08291      219.98843      0.5          
    308000  -1001.2703      181.53761      217.23964      0.5          
    309000  -983.82566      46.958948      218.41828      0.5          
    310000  -928.3134       142.19063      220.9054       0.5          
    311000  -988.13259     -14.577448      219.24165      0.5          
    312000  -906.55811     -124.89888      218.52177      0.5          
    313000  -953.3136      -97.038828      220.01654      0.5          
    314000  -930.45278      199.60267      219.65733      0.5          
    315000  -748.38093      21.482246      223.01145      0.5          
    316000  -833.985       -3.8405351      222.33573      0.5          
    317000  -797.36246      5.6109874      224.19035      0.5          
    318000  -866.6103      -142.41454      220.59783      0.5          
    319000  -862.36872      167.72243      220.41128      0.5          
    320000  -858.46638      143.61583      221.48677      0.5          
    321000  -847.06498     -24.201638      218.36858      0.5          
    322000  -830.05547     -26.035933      219.38608      0.5          
    323000  -846.27896      60.458117      218.71989      0.5          
    324000  -735.29285      129.97237      219.2762       0.5          
    325000  -836.41702     -111.09572      219.17121      0.5          
    326000  -869.86506      86.08576       216.53758      0.5          
    327000  -795.14765     -84.747566      219.24126      0.5          
    328000  -677.54489     -221.44717      220.64346      0.5          
    329000  -718.42607      84.792572      219.95792      0.5          
    330000  -692.37664      110.61094      218.32296      0.5          
    331000  -550.692        156.92664      222.97155      0.5          
    332000  -785.9153      -276.94226      217.39804      0.5          
    333000  -718.23572      83.644711      220.54928      0.5          
    334000  -680.80432     -173.41556      219.22174      0.5          
    335000  -661.0497      -331.70915      221.07678      0.5          
    336000  -621.18879     -137.13287      221.58002      0.5          
    337000  -715.53715      279.77581      217.15145      0.5          
    338000  -765.05112      28.22396       218.27245      0.5          
    339000  -611.8135      -252.69811      222.18547      0.5          
    340000  -670.77692     -158.43441      221.20946      0.5          
    341000  -750.85269      129.16937      221.09135      0.5          
    342000  -854.31439      35.990133      217.77111      0.5          
    343000  -841.12526     -109.87449      219.55729      0.5          
    344000  -906.61772      3.3550703      221.01168      0.5          
    345000  -809.84237      119.04517      218.66765      0.5          
    346000  -770.25056      82.353146      222.58622      0.5          
    347000  -925.56229     -355.59584      219.80327      0.5          
    348000  -965.76153      84.811579      216.8991       0.5          
    349000  -996.12823      172.80344      215.53227      0.5          
    350000  -933.36942     -86.125728      220.67961      0.5          
    351000  -947.99708      37.356114      218.1168       0.5          
    352000  -1015.1811      54.840342      214.41516      0.5          
    353000  -879.10956      153.79823      221.02411      0.5          
    354000  -772.25346      148.8244       223.14268      0.5          
    355000  -792.884        3.9522191      222.12596      0.5          
    356000  -791.57557     -59.871174      222.56116      0.5          
    357000  -848.44366      32.40513       224.23406      0.5          
    358000  -913.28998     -35.362052      218.63044      0.5          
    359000  -864.88562      155.57328      219.88467      0.5          
    360000  -830.07397      1.0254137      222.38597      0.5          
    361000  -868.07753     -25.738339      217.12604      0.5          
    362000  -811.3258       216.77502      222.68219      0.5          
    363000  -830.52125     -204.23507      220.28086      0.5          
    364000  -776.72329     -93.97874       221.45113      0.5          
    365000  -822.07507      266.81703      220.55893      0.5          
    366000  -790.49614     -70.302273      220.92503      0.5          
    367000  -777.98908     -174.86332      219.32952      0.5          
    368000  -824.60517     -230.79143      218.61644      0.5          
    369000  -770.81269      165.72268      218.23352      0.5          
    370000  -760.84688     -144.3521       221.02913      0.5          
    371000  -682.57443     -160.35303      222.32398      0.5          
    372000  -824.45312     -28.399334      218.20647      0.5          
    373000  -755.95637     -38.784547      220.67323      0.5          
    374000  -785.14143     -17.291304      218.96497      0.5          
    375000  -669.146       -43.176885      223.24958      0.5          
    376000  -740.5729       106.03119      219.47379      0.5          
    377000  -724.59996      148.41997      219.97819      0.5          
    378000  -761.44381     -258.95982      219.68885      0.5          
    379000  -758.83265     -267.04202      220.01941      0.5          
    380000  -739.7564       111.08328      220.41765      0.5          
    381000  -711.21843      202.01677      220.20765      0.5          
    382000  -888.42169      261.48719      219.18712      0.5          
    383000  -806.97538     -294.60683      219.11861      0.5          
    384000  -753.1134      -69.880105      223.40296      0.5          
    385000  -854.76611     -47.143908      217.18987      0.5          
    386000  -752.70721      41.045301      220.62101      0.5          
    387000  -742.86429      150.75013      223.54323      0.5          
    388000  -893.69015     -158.692        221.72639      0.5          
    389000  -858.02059     -9.4966764      219.63838      0.5          
    390000  -860.69884      288.47821      219.79834      0.5          
    391000  -790.7631      -153.44344      222.6991       0.5          
    392000  -863.83021     -145.82758      220.99578      0.5          
    393000  -746.16098      81.101296      221.01468      0.5          
    394000  -883.27522      28.307101      217.54277      0.5          
    395000  -714.54258     -8.9685078      222.90465      0.5          
    396000  -891.12579     -25.926264      219.5245       0.5          
    397000  -774.28998      147.20975      226.41948      0.5          
    398000  -940.03142     -99.291777      215.57058      0.5          
    399000  -874.05725      237.12873      218.18615      0.5          
    400000  -640.36216     -121.676        219.83569      0.5          
    401000  -774.18569     -108.65795      221.67604      0.5          
    402000  -875.85106     -69.826388      218.54398      0.5          
    403000  -857.61042     -54.426646      217.01311      0.5          
    404000  -827.54838      148.90695      218.8813       0.5          
    405000  -853.16251      7.3184038      220.3638       0.5          
    406000  -855.32676     -182.10176      217.105        0.5          
    407000  -757.61677      45.088006      218.40599      0.5          
    408000  -746.28671      63.690305      218.59697      0.5          
    409000  -806.01364     -172.87268      218.46077      0.5          
    410000  -813.99392      55.949916      217.81884      0.5          
    411000  -816.3114      -49.297806      218.33012      0.5          
    412000  -705.78269     -87.2802        222.43145      0.5          
    413000  -749.89371      32.756014      220.9444       0.5          
    414000  -746.2075       86.080861      220.38645      0.5          
    415000  -876.20186     -222.19586      216.28522      0.5          
    416000  -811.156        42.389069      218.1132       0.5          
    417000  -773.81889      269.79519      219.47637      0.5          
    418000  -807.49648     -141.30994      216.89063      0.5          
    419000  -779.56938     -159.28243      217.13021      0.5          
    420000  -731.21875      76.185448      219.521        0.5          
    421000  -783.02923     -7.0724817      219.24092      0.5          
    422000  -750.25629     -62.942629      219.51979      0.5          
    423000  -691.30093     -38.31497       223.28622      0.5          
    424000  -691.01277      206.41498      223.70473      0.5          
    425000  -698.31643      333.77205      220.11922      0.5          
    426000  -751.03629      44.118325      218.85289      0.5          
    427000  -767.84308     -0.59561417     220.09448      0.5          
    428000  -845.84688     -115.26953      216.65462      0.5          
    429000  -739.83604     -299.65757      224.05395      0.5          
    430000  -758.66261      185.87333      223.06986      0.5          
    431000  -743.8991       285.01225      221.76554      0.5          
    432000  -911.76797     -61.82047       218.66534      0.5          
    433000  -759.24766      240.99646      220.56638      0.5          
    434000  -870.92752      7.6968505      218.30796      0.5          
    435000  -851.93684      39.319386      219.62558      0.5          
    436000  -801.73414     -19.818136      223.11245      0.5          
    437000  -843.53577      89.548989      220.42515      0.5          
    438000  -831.13593     -92.366427      219.94395      0.5          
    439000  -840.07769      84.428024      220.60796      0.5          
    440000  -867.72512     -93.26237       218.21876      0.5          
    441000  -853.43216     -20.212079      218.92048      0.5          
    442000  -733.99367     -138.15343      221.35867      0.5          
    443000  -809.0605       172.46036      221.59394      0.5          
    444000  -684.77138      28.827276      223.09661      0.5          
    445000  -822.22166     -390.61928      220.21309      0.5          
    446000  -831.4139      -28.191404      218.40874      0.5          
    447000  -694.08142      220.53447      222.07357      0.5          
    448000  -867.26462     -110.3101       217.48042      0.5          
    449000  -764.26905     -118.76992      219.6079       0.5          
    450000  -768.39691      49.074098      219.65316      0.5          
    451000  -827.73994      33.730637      219.02406      0.5          
    452000  -619.06946      121.66109      219.82349      0.5          
    453000  -691.96986      5.27286        220.55736      0.5          
    454000  -723.18024      63.466871      217.87288      0.5          
    455000  -737.22725     -6.2017749      217.33545      0.5          
    456000  -709.24946      54.704368      221.27223      0.5          
    457000  -635.98779      200.84976      220.88111      0.5          
    458000  -657.25403      108.47478      220.95714      0.5          
    459000  -753.57127     -277.33707      218.0208       0.5          
    460000  -690.63254      35.020806      218.81436      0.5          
    461000  -735.72991      199.37027      220.58159      0.5          
    462000  -757.11037     -76.130071      218.64027      0.5          
    463000  -628.71323     -134.25772      224.3165       0.5          
    464000  -767.39875     -258.55206      221.55631      0.5          
    465000  -723.28985      129.39656      222.06208      0.5          
    466000  -805.93688     -100.67052      220.81721      0.5          
    467000  -771.85322     -118.62641      219.15338      0.5          
    468000  -813.90736      127.27099      219.79552      0.5          
    469000  -753.59587      174.36656      220.94122      0.5          
    470000  -719.50947     -168.26017      218.6967       0.5          
    471000  -744.79329     -89.856078      220.13358      0.5          
    472000  -869.31727      195.3713       218.72945      0.5          
    473000  -922.05764     -142.31208      216.26646      0.5          
    474000  -731.86895      90.511074      221.8871       0.5          
    475000  -749.5907       33.912368      220.88989      0.5          
    476000  -747.83134     -117.12593      221.83136      0.5          
    477000  -781.71281     -67.980636      221.42745      0.5          
    478000  -751.20166      315.83743      222.77414      0.5          
    479000  -770.33199     -96.664351      218.81229      0.5          
    480000  -784.66478      53.060708      217.71209      0.5          
    481000  -802.92054     -96.342692      218.28736      0.5          
    482000  -726.87748     -107.38027      222.57446      0.5          
    483000  -841.06197     -149.24096      220.05944      0.5          
    484000  -803.59675      153.35233      219.56085      0.5          
    485000  -785.62873      71.545927      221.35083      0.5          
    486000  -697.90482     -128.16395      222.17876      0.5          
    487000  -743.99417     -14.404025      220.21534      0.5          
    488000  -756.5386       152.6296       220.23727      0.5          
    489000  -814.97033      69.759764      218.10148      0.5          
    490000  -887.11709     -108.65491      214.6973       0.5          
    491000  -830.1713       43.995777      218.66753      0.5          
    492000  -809.32387     -265.38546      219.4411       0.5          
    493000  -714.81265      32.10487       220.80767      0.5          
    494000  -684.38529     -150.70999      220.95214      0.5          
    495000  -861.19494     -212.6199       215.59397      0.5          
    496000  -785.03856      105.32228      219.21919      0.5          
    497000  -692.75926      111.1561       221.56014      0.5          
    498000  -681.30929     -26.278485      222.19079      0.5          
    499000  -609.3963      -67.986697      223.16839      0.5          
    500000  -656.29447     -54.923252      219.85582      0.5          
    501000  -740.81954     -84.213635      216.79957      0.5          
    502000  -753.96978      55.350136      219.43093      0.5          
    503000  -699.27235     -255.92205      221.11295      0.5          
    504000  -756.34565     -45.161903      218.65479      0.5          
    505000  -740.90798      251.27627      218.69701      0.5          
    506000  -640.50543      33.049432      222.37592      0.5          
    507000  -712.87537     -2.6318184      220.30192      0.5          
    508000  -723.49262     -196.25642      219.25311      0.5          
    509000  -734.32507     -204.05937      216.77425      0.5          
    510000  -894.38716      23.198345      214.1563       0.5          
    511000  -813.91254      335.26185      219.18698      0.5          
    512000  -684.19279     -119.12225      224.18261      0.5          
    513000  -749.41176     -116.65093      219.50551      0.5          
    514000  -862.01519      89.783061      215.14682      0.5          
    515000  -833.758        99.124586      217.67585      0.5          
    516000  -763.74398     -103.12759      219.07533      0.5          
    517000  -739.77657     -168.47951      219.15973      0.5          
    518000  -753.01103      127.33667      216.61266      0.5          
    519000  -699.70223     -63.909046      218.95768      0.5          
    520000  -795.52715     -100.09207      217.09927      0.5          
    521000  -670.55549     -114.74841      223.03318      0.5          
    522000  -728.19383      18.49864       219.95702      0.5          
    523000  -694.67964      93.708428      219.39477      0.5          
    524000  -860.10525      107.83858      215.17121      0.5          
    525000  -713.57675      134.85829      219.6222       0.5          
    526000  -754.74138      160.57765      219.77595      0.5          
    527000  -742.27088      133.55703      219.3879       0.5          
    528000  -795.7107      -87.509276      218.28091      0.5          
    529000  -808.82625      36.456031      219.54489      0.5          
    530000  -759.45417      223.78245      218.03552      0.5          
    531000  -723.97225      25.949536      220.95934      0.5          
    532000  -738.00198     -348.91365      220.36517      0.5          
    533000  -648.15976      237.84878      222.75437      0.5          
    534000  -698.7338       97.485844      221.96708      0.5          
    535000  -760.36882     -324.64979      219.95031      0.5          
    536000  -737.85709     -54.139575      220.28547      0.5          
    537000  -718.22883     -61.592491      220.57703      0.5          
    538000  -611.56809     -214.01787      224.27531      0.5          
    539000  -672.33339      114.21379      219.10142      0.5          
    540000  -690.03127      189.81239      221.83668      0.5          
    541000  -715.82659      89.68299       221.48328      0.5          
    542000  -750.3613      -79.50753       219.93518      0.5          
    543000  -669.72114      36.452701      222.98243      0.5          
    544000  -735.79134     -248.02589      219.49061      0.5          
    545000  -621.16343     -210.06216      225.3844       0.5          
    546000  -660.01034     -158.96024      219.14366      0.5          
    547000  -697.66125      403.77359      217.16599      0.5          
    548000  -761.61178     -60.320266      219.32649      0.5          
    549000  -670.55443     -50.128253      222.59666      0.5          
    550000  -720.74741     -340.15293      219.49291      0.5          
    551000  -758.18672      75.169982      218.49231      0.5          
    552000  -641.53863      75.154977      221.35805      0.5          
    553000  -669.78006      24.96009       223.98979      0.5          
    554000  -665.90691      126.84992      223.58726      0.5          
    555000  -701.20521     -256.32334      220.64989      0.5          
    556000  -789.26575      123.23348      215.13575      0.5          
    557000  -792.71323      34.109612      220.30798      0.5          
    558000  -737.07213     -173.84324      219.36604      0.5          
    559000  -773.4528       71.390059      220.51488      0.5          
    560000  -863.56111     -69.510737      221.7635       0.5          
    561000  -761.99705     -140.68194      221.78863      0.5          
    562000  -804.03089      11.046316      218.75518      0.5          
    563000  -744.56451      78.758319      221.11894      0.5          
    564000  -775.60923     -98.999956      220.56997      0.5          
    565000  -696.27183      87.978609      221.78022      0.5          
    566000  -691.51828      27.945919      222.00538      0.5          
    567000  -903.0294       177.88896      217.66359      0.5          
    568000  -751.52456      173.33663      220.60871      0.5          
    569000  -691.2323       113.50488      223.72816      0.5          
    570000  -724.24068      257.08926      222.83919      0.5          
    571000  -772.50841      10.823558      218.73513      0.5          
    572000  -796.49031      155.45481      217.81238      0.5          
    573000  -696.09505     -82.749329      221.73761      0.5          
    574000  -721.05439     -167.06729      222.42954      0.5          
    575000  -748.74981     -255.31896      222.94045      0.5          
    576000  -745.63626      147.59401      220.54808      0.5          
    577000  -787.21143      34.652713      219.38108      0.5          
    578000  -692.65346     -138.4976       220.84932      0.5          
    579000  -743.42792     -42.382118      217.29045      0.5          
    580000  -800.73123     -69.174068      217.05681      0.5          
    581000  -671.97081     -130.24265      219.66089      0.5          
    582000  -690.48638     -24.802668      220.36415      0.5          
    583000  -664.62961     -4.1651524      220.32844      0.5          
    584000  -680.61831     -8.8937118      217.47944      0.5          
    585000  -563.36916      16.077078      219.91521      0.5          
    586000  -695.22668      177.93234      218.26426      0.5          
    587000  -630.78446     -229.3798       221.7481       0.5          
    588000  -728.19603      141.68467      219.39444      0.5          
    589000  -636.9878       39.408065      222.52905      0.5          
    590000  -750.7439      -624.57162      216.92614      0.5          
    591000  -643.73681     -271.40548      218.88846      0.5          
    592000  -686.97085      137.22635      220.0553       0.5          
    593000  -638.37817      125.52316      221.40426      0.5          
    594000  -790.28412      13.136099      220.81616      0.5          
    595000  -702.11569     -78.073638      222.5997       0.5          
    596000  -731.22281     -17.192008      220.32786      0.5          
    597000  -851.65887      180.88113      221.98414      0.5          
    598000  -930.72231      172.39411      218.35551      0.5          
    599000  -738.25987      18.648802      223.58019      0.5          
    600000  -870.10473     -11.876141      219.16564      0.5          
    601000  -888.55829      39.42517       220.36996      0.5          
    602000  -796.02735      130.64752      220.93387      0.5          
    603000  -979.79172      243.76222      218.05232      0.5          
    604000  -979.62276      55.37519       219.87585      0.5          
    605000  -851.94334     -18.04758       221.95991      0.5          
    606000  -824.83106      70.885812      223.11758      0.5          
    607000  -903.40409      15.069434      217.53184      0.5          
    608000  -986.02567      287.07505      215.79894      0.5          
    609000  -958.18754     -103.79338      218.55664      0.5          
    610000  -909.21496     -28.056656      217.91155      0.5          
    611000  -921.23693      257.96564      219.53224      0.5          
    612000  -790.02651     -54.265136      220.84908      0.5          
    613000  -835.75953     -24.666794      218.42013      0.5          
    614000  -741.08627     -148.89407      217.95557      0.5          
    615000  -722.43194     -412.94047      219.32378      0.5          
    616000  -767.10676      11.481116      217.76483      0.5          
    617000  -792.67927      27.645653      219.67858      0.5          
    618000  -755.89494     -258.77446      218.23229      0.5          
    619000  -752.17062     -74.648025      218.97689      0.5          
    620000  -684.99057     -128.58565      220.05988      0.5          
    621000  -633.84462     -179.42475      221.45686      0.5          
    622000  -612.28633      33.926018      221.81191      0.5          
    623000  -738.87668     -4.827137       217.66138      0.5          
    624000  -627.64599     -117.89053      220.08087      0.5          
    625000  -725.13506     -218.21071      218.04935      0.5          
    626000  -618.5155      -80.650489      220.96332      0.5          
    627000  -700.88091      11.593967      219.42047      0.5          
    628000  -700.13974      83.890915      219.93242      0.5          
    629000  -737.82515      45.218884      219.17648      0.5          
    630000  -653.07319     -278.19678      223.50488      0.5          
    631000  -650.12322      117.0562       224.94786      0.5          
    632000  -780.45821     -54.309386      216.66135      0.5          
    633000  -773.67345     -167.00424      220.73557      0.5          
    634000  -781.5589       254.67935      221.14009      0.5          
    635000  -759.28158      50.827561      221.91009      0.5          
    636000  -840.60263     -62.599576      215.20463      0.5          
    637000  -666.32196      35.857695      222.19024      0.5          
    638000  -689.83055      64.454876      222.20033      0.5          
    639000  -745.59269     -196.60289      222.90958      0.5          
    640000  -835.07613      82.911883      218.30939      0.5          
    641000  -732.37953      430.47438      222.9047       0.5          
    642000  -692.96478     -51.973509      223.53549      0.5          
    643000  -769.05722     -136.79896      223.66945      0.5          
    644000  -855.08207      127.21605      220.26854      0.5          
    645000  -780.28679      146.06385      219.21456      0.5          
    646000  -781.18451      118.76409      222.2414       0.5          
    647000  -797.63398      125.57113      220.23763      0.5          
    648000  -861.50574      12.192722      218.90944      0.5          
    649000  -710.2078      -132.85111      224.03948      0.5          
    650000  -781.39717      25.352136      221.77181      0.5          
    651000  -832.72402      27.519869      218.62946      0.5          
    652000  -750.77326      13.840243      219.21336      0.5          
    653000  -858.18469     -130.72841      218.57913      0.5          
    654000  -767.37119     -42.419393      218.45565      0.5          
    655000  -754.1874       0.9176244      219.74676      0.5          
    656000  -700.16011     -11.520832      223.77838      0.5          
    657000  -776.82059     -133.36746      217.85242      0.5          
    658000  -726.67703     -25.38313       218.20051      0.5          
    659000  -728.97719      111.82246      216.75104      0.5          
    660000  -686.212        35.99695       220.05353      0.5          
    661000  -564.02607     -146.88472      222.63761      0.5          
    662000  -695.25155      85.482227      219.19441      0.5          
    663000  -685.09247      258.90768      220.08249      0.5          
    664000  -726.92079     -305.93301      220.12166      0.5          
    665000  -631.75445     -56.826425      219.14277      0.5          
    666000  -743.81        -97.291654      219.55607      0.5          
    667000  -661.63649     -30.23907       222.53584      0.5          
    668000  -756.73921      184.43839      220.66029      0.5          
    669000  -788.24273      2.9496383      219.32064      0.5          
    670000  -749.28043     -257.15246      220.63526      0.5          
    671000  -771.06608     -72.086178      221.43442      0.5          
    672000  -781.6642       244.5461       221.23631      0.5          
    673000  -855.81236     -103.16826      219.03584      0.5          
    674000  -742.2826      -172.46232      219.42609      0.5          
    675000  -823.76071      4.7373149      217.6415       0.5          
    676000  -851.77166      191.08374      217.14265      0.5          
    677000  -904.71745      38.001047      218.5762       0.5          
    678000  -766.17644     -4.6226259      222.09869      0.5          
    679000  -877.32123     -113.16305      221.3947       0.5          
    680000  -838.17145     -21.215426      221.37674      0.5          
    681000  -868.58809     -60.748537      220.58287      0.5          
    682000  -859.91048      244.78335      221.11947      0.5          
    683000  -888.67865     -39.482031      217.18209      0.5          
    684000  -957.18735     -81.461843      215.73412      0.5          
    685000  -791.85698      203.29935      219.32421      0.5          
    686000  -879.09037      348.03506      220.46735      0.5          
    687000  -795.19121     -94.605939      220.99281      0.5          
    688000  -831.93675     -119.64165      217.29576      0.5          
    689000  -681.25851     -5.8188609      222.11069      0.5          
    690000  -707.87561      180.64118      222.83726      0.5          
    691000  -760.12957      61.501102      223.40175      0.5          
    692000  -917.35673     -444.90979      214.01291      0.5          
    693000  -732.75082      6.7140865      220.01687      0.5          
    694000  -763.82895      72.984997      220.6916       0.5          
    695000  -794.97333     -220.13243      219.59308      0.5          
    696000  -644.91915      5.5629081      223.86448      0.5          
    697000  -684.3265       108.40782      221.3429       0.5          
    698000  -767.12188     -304.60751      219.72495      0.5          
    699000  -706.83394      144.82022      218.64174      0.5          
    700000  -799.06828      303.21423      219.43015      0.5          
    701000  -712.09414     -316.2512       221.46438      0.5          
    702000  -705.24062     -176.86435      219.99504      0.5          
    703000  -708.74219      263.79604      219.3989       0.5          
    704000  -708.15522      66.166492      222.71892      0.5          
    705000  -813.71589     -74.828524      218.39529      0.5          
    706000  -753.53139     -173.11921      221.5694       0.5          
    707000  -797.9628      -8.9884831      216.80772      0.5          
    708000  -785.04644      175.94164      218.70262      0.5          
    709000  -754.31204      119.09317      220.81595      0.5          
    710000  -761.14125     -64.31315       220.5626       0.5          
    711000  -738.84744     -259.00513      224.93978      0.5          
    712000  -714.86364     -38.909039      222.46288      0.5          
    713000  -804.30023      157.55899      218.82331      0.5          
    714000  -731.27022      47.388459      221.05747      0.5          
    715000  -763.39027      1.778045       219.671        0.5          
    716000  -807.68459      179.53934      218.30705      0.5          
    717000  -740.19209     -26.010382      219.4064       0.5          
    718000  -783.0657      -250.81937      219.74186      0.5          
    719000  -834.59824     -200.87347      215.98861      0.5          
    720000  -884.41209      459.6606       217.15527      0.5          
    721000  -786.97636     -50.540546      219.29754      0.5          
    722000  -725.20381     -132.82676      221.53216      0.5          
    723000  -744.26002     -57.66341       220.8087       0.5          
    724000  -703.97934     -264.03552      222.18926      0.5          
    725000  -797.25253     -135.1745       218.69994      0.5          
    726000  -748.74375     -16.332134      217.07093      0.5          
    727000  -799.8343       52.323516      219.75768      0.5          
    728000  -787.11428      177.71771      214.90186      0.5          
    729000  -616.4815      -87.758928      224.1876       0.5          
    730000  -730.55772     -182.40138      221.65171      0.5          
    731000  -735.76365      142.47277      223.58215      0.5          
    732000  -896.86335     -127.9165       215.97255      0.5          
    733000  -709.64869      191.97974      222.79785      0.5          
    734000  -676.02426     -115.60668      223.10177      0.5          
    735000  -715.62441     -261.60491      219.42182      0.5          
    736000  -641.61399      123.29729      221.83539      0.5          
    737000  -662.45075      243.94818      222.27768      0.5          
    738000  -700.07417     -200.79338      219.82166      0.5          
    739000  -687.90134     -171.77188      221.31648      0.5          
    740000  -678.13918      64.536047      221.51632      0.5          
    741000  -780.7712       101.61099      214.70357      0.5          
    742000  -626.39642      118.89376      226.98336      0.5          
    743000  -764.58948     -29.36224       220.06909      0.5          
    744000  -864.57246      52.16882       217.29176      0.5          
    745000  -739.68498      104.80135      220.71819      0.5          
    746000  -583.38742      46.489512      223.32389      0.5          
    747000  -726.97025     -218.53952      221.02268      0.5          
    748000  -757.17989     -51.838148      220.54557      0.5          
    749000  -722.91074      30.422558      221.11649      0.5          
    750000  -677.03398      244.87102      219.52557      0.5          
    751000  -719.30116     -178.19144      219.13313      0.5          
    752000  -575.99578     -153.05797      225.27132      0.5          
    753000  -737.67115     -183.82343      218.18813      0.5          
    754000  -832.69399      149.6858       217.98112      0.5          
    755000  -696.96349     -210.33854      220.18872      0.5          
    756000  -817.70518     -102.03571      216.19735      0.5          
    757000  -752.35847      236.26796      216.62842      0.5          
    758000  -753.93866      208.26943      221.33815      0.5          
    759000  -587.12612      77.030906      225.03527      0.5          
    760000  -693.14307     -72.82807       222.75015      0.5          
    761000  -743.04153     -51.595736      219.04257      0.5          
    762000  -596.59961      73.371799      221.4715       0.5          
    763000  -661.84649     -57.089039      221.01239      0.5          
    764000  -654.41065      23.979083      224.28228      0.5          
    765000  -725.09694      186.17276      218.16786      0.5          
    766000  -752.28212     -52.798056      219.86353      0.5          
    767000  -736.4681      -166.16269      217.72294      0.5          
    768000  -732.59246      190.85441      218.79103      0.5          
    769000  -702.17668     -109.04726      221.96723      0.5          
    770000  -727.29943     -423.91782      217.96414      0.5          
    771000  -638.87893      24.423407      222.4451       0.5          
    772000  -701.95443      249.55462      218.30705      0.5          
    773000  -621.53339      9.1815601      221.15999      0.5          
    774000  -744.96867     -416.22987      217.55479      0.5          
    775000  -686.14641     -347.50336      221.87743      0.5          
    776000  -706.38922      103.57766      220.67103      0.5          
    777000  -690.56349     -267.74119      218.68532      0.5          
    778000  -691.58523     -45.000377      222.23309      0.5          
    779000  -676.68974      92.03155       218.4086       0.5          
    780000  -704.90594     -139.86351      219.13012      0.5          
    781000  -652.95982     -26.728176      221.32257      0.5          
    782000  -708.44585      79.408835      218.11764      0.5          
    783000  -596.58744      279.70281      222.01505      0.5          
    784000  -663.76195     -136.40219      219.17932      0.5          
    785000  -663.5401      -41.973848      218.74494      0.5          
    786000  -597.3699       103.06853      221.69283      0.5          
    787000  -763.06265     -153.24194      218.73153      0.5          
    788000  -664.1948      -1.6967794      220.86543      0.5          
    789000  -635.6507       57.851796      221.70468      0.5          
    790000  -758.23346      39.27582       218.16801      0.5          
    791000  -717.30936      165.05955      219.94742      0.5          
    792000  -644.59835      47.748338      219.00639      0.5          
    793000  -632.45735      39.977513      220.65784      0.5          
    794000  -679.08517     -203.56059      222.05254      0.5          
    795000  -682.00912     -198.57042      222.47375      0.5          
    796000  -637.77612      11.522525      222.90469      0.5          
    797000  -736.50119      244.3656       216.82349      0.5          
    798000  -668.27624      35.316824      220.31974      0.5          
    799000  -799.41341     -126.13873      219.32873      0.5          
    800000  -712.5913       144.74593      222.23582      0.5          
    801000  -750.23275      51.14378       221.53635      0.5          
    802000  -631.31066      55.435912      223.18851      0.5          
    803000  -814.15359      220.65909      219.65525      0.5          
    804000  -780.63628      152.79838      218.02654      0.5          
    805000  -806.59596     -175.43614      218.54639      0.5          
    806000  -806.14586     -41.382237      218.72384      0.5          
    807000  -818.23435     -25.58598       218.90633      0.5          
    808000  -687.91972      144.01559      222.61731      0.5          
    809000  -704.36448      145.32728      219.67132      0.5          
    810000  -840.57241     -155.10231      213.6515       0.5          
    811000  -670.77316     -334.21998      221.69354      0.5          
    812000  -692.17972      108.26176      221.73803      0.5          
    813000  -666.21904      191.1317       221.03173      0.5          
    814000  -746.52437      300.26002      220.71697      0.5          
    815000  -686.04837     -85.47595       221.69314      0.5          
    816000  -758.21858     -183.55506      218.64664      0.5          
    817000  -835.97205      183.81318      218.15386      0.5          
    818000  -685.93139      121.50606      221.04542      0.5          
    819000  -798.61595     -134.55742      219.58765      0.5          
    820000  -781.4397       48.483438      216.99037      0.5          
    821000  -786.5778      -29.243961      217.25632      0.5          
    822000  -745.93829     -35.950568      222.17888      0.5          
    823000  -786.5872       184.26202      217.18384      0.5          
    824000  -764.76495     -219.07988      219.67612      0.5          
    825000  -766.56955     -237.73543      220.23376      0.5          
    826000  -573.90648      273.73697      225.80949      0.5          
    827000  -746.01841      75.306058      219.12836      0.5          
    828000  -676.22175     -131.9811       218.64657      0.5          
    829000  -670.82305      57.354303      222.4559       0.5          
    830000  -760.55224     -43.263332      218.74597      0.5          
    831000  -718.88402     -45.896391      219.73744      0.5          
    832000  -762.06296     -189.10604      219.67407      0.5          
    833000  -703.47211     -130.96553      221.91999      0.5          
    834000  -660.15124      302.06847      220.28571      0.5          
    835000  -724.87816     -243.24041      219.04315      0.5          
    836000  -716.98348     -298.9982       218.86598      0.5          
    837000  -806.22462      75.832199      217.04479      0.5          
    838000  -650.68384     -79.329772      220.82839      0.5          
    839000  -696.62305     -222.34523      220.71755      0.5          
    840000  -692.81101     -148.8852       218.58417      0.5          
    841000  -553.93876      102.76976      223.31711      0.5          
    842000  -701.59138     -177.78874      219.47816      0.5          
    843000  -668.53607      26.45514       222.88556      0.5          
    844000  -608.10686      109.8273       220.95472      0.5          
    845000  -612.41236      186.01502      219.40892      0.5          
    846000  -638.98358      60.718083      220.12039      0.5          
    847000  -777.61222     -332.35529      218.27003      0.5          
    848000  -693.39491     -130.90126      220.73858      0.5          
    849000  -664.37982      115.03503      221.3257       0.5          
    850000  -748.15596     -167.31177      219.4562       0.5          
    851000  -622.89229     -207.85299      222.44941      0.5          
    852000  -602.28891      51.87202       224.20786      0.5          
    853000  -694.24206      112.88112      217.92418      0.5          
    854000  -785.65011     -171.05309      219.28589      0.5          
    855000  -701.22356     -82.34952       219.95768      0.5          
    856000  -752.85936     -232.49342      217.77398      0.5          
    857000  -726.3112       47.029924      222.57325      0.5          
    858000  -675.79869     -10.923555      224.34571      0.5          
    859000  -822.90169     -181.75129      216.4468       0.5          
    860000  -808.21807     -62.990899      217.15414      0.5          
    861000  -645.84903     -70.007941      221.39116      0.5          
    862000  -746.81841     -337.38198      218.48118      0.5          
    863000  -722.70244     -152.7679       220.37019      0.5          
    864000  -711.26778      121.77181      218.58758      0.5          
    865000  -670.73343      61.922661      218.29292      0.5          
    866000  -661.50029      345.33961      219.63684      0.5          
    867000  -561.44739      128.90489      224.75425      0.5          
    868000  -687.50265     -90.620801      222.36645      0.5          
    869000  -635.5771       170.90113      221.85389      0.5          
    870000  -626.43208      91.386945      223.99068      0.5          
    871000  -680.68245     -41.475796      219.7349       0.5          
    872000  -666.57154     -36.531739      221.84698      0.5          
    873000  -765.71668     -112.83942      217.32021      0.5          
    874000  -679.1052       63.389829      223.38416      0.5          
    875000  -721.4         -80.974483      221.67626      0.5          
    876000  -729.39149      9.0829675      220.07105      0.5          
    877000  -709.86452      3.0540854      220.74737      0.5          
    878000  -773.17546     -282.93283      216.69694      0.5          
    879000  -755.1696      -86.923816      221.27829      0.5          
    880000  -782.83563      59.082414      222.12875      0.5          
    881000  -788.57466     -190.54707      216.63881      0.5          
    882000  -748.32766     -237.78713      220.96115      0.5          
    883000  -681.77807      151.63211      220.35729      0.5          
    884000  -715.27245      68.816997      220.17169      0.5          
    885000  -704.3266      -156.72434      220.44654      0.5          
    886000  -671.6658      -128.10938      221.16461      0.5          
    887000  -678.41502      123.44023      221.40887      0.5          
    888000  -695.93272      26.36133       222.60582      0.5          
    889000  -779.44356     -194.17826      219.6957       0.5          
    890000  -739.78071     -177.08634      219.06734      0.5          
    891000  -722.12435      168.90343      223.07521      0.5          
    892000  -837.10647     -60.699847      216.30664      0.5          
    893000  -799.19558      76.652434      218.65221      0.5          
    894000  -795.1192       129.84927      220.38704      0.5          
    895000  -846.90942     -324.31827      217.62403      0.5          
    896000  -794.31957     -252.24194      220.24615      0.5          
    897000  -600.13042      283.6447       220.24516      0.5          
    898000  -762.07272     -21.809009      219.60564      0.5          
    899000  -708.57497      7.7389566      222.66876      0.5          
    900000  -721.90504     -94.494936      218.93853      0.5          
    901000  -761.74216     -75.437854      220.50881      0.5          
    902000  -722.52545      13.350867      221.18603      0.5          
    903000  -789.85171      73.179251      221.03946      0.5          
    904000  -768.18571      11.782966      217.57194      0.5          
    905000  -681.92394      36.854493      222.73836      0.5          
    906000  -759.63018      158.81131      221.20597      0.5          
    907000  -747.88999     -242.46227      221.50503      0.5          
    908000  -772.25457     -45.145069      220.15547      0.5          
    909000  -743.43097     -128.63971      218.14747      0.5          
    910000  -674.12284     -35.632078      223.02573      0.5          
    911000  -733.91388      40.100081      223.51628      0.5          
    912000  -801.2911      -84.388343      218.2348       0.5          
    913000  -737.73578      139.04775      222.30572      0.5          
    914000  -706.51385      82.20935       221.04943      0.5          
    915000  -695.6468      -50.141606      221.06533      0.5          
    916000  -689.27406     -21.151044      220.38539      0.5          
    917000  -741.23477      45.932307      220.31823      0.5          
    918000  -728.07093     -37.022834      218.8762       0.5          
    919000  -673.10614     -21.42661       221.1053       0.5          
    920000  -755.32402      17.950046      218.26021      0.5          
    921000  -631.84125     -36.339029      220.12247      0.5          
    922000  -592.35521      123.50511      222.27754      0.5          
    923000  -683.78478     -163.01438      215.54769      0.5          
    924000  -658.556        184.07892      220.08766      0.5          
    925000  -675.10587     -9.6632644      218.7648       0.5          
    926000  -584.48437     -411.21556      219.43045      0.5          
    927000  -679.83255     -129.07588      219.33282      0.5          
    928000  -597.39951      298.34403      223.53155      0.5          
    929000  -657.51387     -56.83467       220.14081      0.5          
    930000  -744.10113      130.14088      215.98266      0.5          
    931000  -665.21232      190.0818       220.89442      0.5          
    932000  -638.20393     -147.03895      219.16919      0.5          
    933000  -643.89155     -278.33404      219.39932      0.5          
    934000  -687.73476      212.04941      220.15302      0.5          
    935000  -750.05878      50.81926       215.08872      0.5          
    936000  -687.5196      -122.62524      217.82164      0.5          
    937000  -722.09085     -167.2268       221.95825      0.5          
    938000  -690.17817     -233.5528       221.89566      0.5          
    939000  -718.74453     -94.556983      220.82772      0.5          
    940000  -683.07898     -42.284307      219.83509      0.5          
    941000  -757.95857     -47.316022      217.38667      0.5          
    942000  -744.81736     -22.677069      220.23935      0.5          
    943000  -746.42646     -34.149174      220.91015      0.5          
    944000  -677.44482     -155.08324      220.70432      0.5          
    945000  -658.29998      112.03833      221.74557      0.5          
    946000  -634.42542      201.07419      219.78135      0.5          
    947000  -751.02938     -59.29932       220.66634      0.5          
    948000  -721.28331     -52.953868      221.69125      0.5          
    949000  -666.8313       66.502291      221.49767      0.5          
    950000  -771.52775     -178.55822      216.73641      0.5          
    951000  -695.29209      0.0568366      223.51014      0.5          
    952000  -625.08505      152.08891      221.63152      0.5          
    953000  -644.7296      -41.84425       219.23292      0.5          
    954000  -753.44049     -41.848562      219.5669       0.5          
    955000  -700.07645      18.085266      219.83416      0.5          
    956000  -662.49793      85.066199      218.44569      0.5          
    957000  -678.10516     -42.891388      218.1361       0.5          
    958000  -663.24026      338.69032      221.04301      0.5          
    959000  -668.89376      290.38274      221.46691      0.5          
    960000  -661.24638     -145.87936      220.27078      0.5          
    961000  -679.40937      77.913993      223.96099      0.5          
    962000  -784.37562      254.41719      219.27409      0.5          
    963000  -737.29239     -129.42833      221.93798      0.5          
    964000  -678.24241     -98.554923      221.39517      0.5          
    965000  -746.4957       223.35954      220.4169       0.5          
    966000  -785.35374      5.6079159      219.3065       0.5          
    967000  -682.6262      -75.477066      220.71888      0.5          
    968000  -641.35996      156.32083      220.30733      0.5          
    969000  -643.68649     -106.38251      219.69526      0.5          
    970000  -594.48932     -149.99153      224.82089      0.5          
    971000  -699.17927      26.717103      219.06066      0.5          
    972000  -677.07894     -198.72598      219.88265      0.5          
    973000  -646.17381      119.29226      218.70635      0.5          
    974000  -725.6278       284.44503      216.34158      0.5          
    975000  -717.83318     -94.07315       217.10863      0.5          
    976000  -545.87031      111.05636      224.70621      0.5          
    977000  -686.34097     -46.162407      222.30179      0.5          
    978000  -726.51723     -37.67317       218.42251      0.5          
    979000  -634.62182     -102.37971      218.99452      0.5          
    980000  -689.71375     -153.61385      221.31424      0.5          
    981000  -586.73361      163.8051       220.59414      0.5          
    982000  -619.64001     -16.385639      218.78436      0.5          
    983000  -637.33237     -34.477456      220.21003      0.5          
    984000  -666.29347      3.5140596      218.70616      0.5          
    985000  -653.86792      106.11475      224.62363      0.5          
    986000  -620.17205     -35.563065      219.20724      0.5          
    987000  -571.12597     -103.89508      220.09605      0.5          
    988000  -739.08379      47.448298      214.52788      0.5          
    989000  -712.58772     -140.15837      220.9839       0.5          
    990000  -652.22536     -158.34832      218.31492      0.5          
    991000  -570.6253       59.873663      222.76579      0.5          
    992000  -678.10094     -10.809071      219.88851      0.5          
    993000  -687.37355      49.971721      217.78657      0.5          
    994000  -579.41277      121.703        219.15268      0.5          
    995000  -620.56144     -51.617353      221.32493      0.5          
    996000  -632.52494     -232.9972       218.81372      0.5          
    997000  -768.01587     -116.72987      216.60544      0.5          
    998000  -607.95354      149.80978      222.11005      0.5          
    999000  -665.22126     -157.59748      221.76565      0.5          
   1000000  -653.1279      -292.14835      221.41611      0.5          
   1001000  -692.60484      102.39427      218.70908      0.5          
   1002000  -697.1935       97.142795      218.48095      0.5          
   1003000  -734.84913      62.723305      219.40891      0.5          
   1004000  -713.29673     -314.63118      221.3979       0.5          
   1005000  -655.95262      11.668704      223.24975      0.5          
   1006000  -672.43574      233.8555       219.23667      0.5          
   1007000  -656.4133       161.33808      221.98472      0.5          
   1008000  -684.56361      60.997174      218.15216      0.5          
   1009000  -738.92187     -184.4751       216.19603      0.5          
   1010000  -644.79214     -119.58521      224.41217      0.5          
   1011000  -838.37826      130.5304       216.76252      0.5          
   1012000  -757.78172      340.6321       218.20126      0.5          
   1013000  -726.10337      141.64713      220.06304      0.5          
   1014000  -706.58216     -39.364167      222.45599      0.5          
   1015000  -897.75999      72.076999      215.8569       0.5          
   1016000  -593.84832     -159.51298      225.65059      0.5          
   1017000  -728.75438     -136.60443      218.03049      0.5          
   1018000  -770.5789       275.34062      221.156        0.5          
   1019000  -826.62891      172.90539      217.07459      0.5          
   1020000  -634.19765     -56.032012      223.12811      0.5          
   1021000  -735.67187     -5.5129452      221.62948      0.5          
   1022000  -756.3287       412.08213      220.16747      0.5          
   1023000  -799.13218      15.052205      215.7158       0.5          
   1024000  -712.65869      41.340012      220.31005      0.5          
   1025000  -659.03642     -184.18884      219.90021      0.5          
   1026000  -781.41573      40.967391      219.47264      0.5          
   1027000  -709.93465      12.667183      220.39562      0.5          
   1028000  -704.73612     -117.21479      218.372        0.5          
[...]
   3748000  -604.27554      70.390595      218.63643      0.5          
   3749000  -604.56991      144.80735      222.3097       0.5          
   3750000  -604.58909      137.44933      219.25691      0.5          
   3751000  -604.14571      91.66462       220.6239       0.5          
   3752000  -604.42176     -45.637657      220.95719      0.5          
   3753000  -604.46831     -16.395087      219.77227      0.5          
   3754000  -604.48876     -62.179798      220.40447      0.5          
   3755000  -604.39565     -40.641236      222.20559      0.5          
   3756000  -604.34855      40.868064      220.33493      0.5          
   3757000  -604.42073      42.640287      223.74414      0.5          
   3758000  -604.31653     -103.15518      221.55886      0.5          
   3759000  -604.26557     -332.77901      222.31709      0.5          
   3760000  -604.01197      8.6352587      219.24591      0.5          
   3761000  -604.59066      428.4775       222.73994      0.5          
   3762000  -604.63315      9.2155945      220.30117      0.5          
   3763000  -604.49374      77.562047      221.72994      0.5          
   3764000  -604.18783      309.29323      221.63696      0.5          
   3765000  -604.07176     -31.588074      220.32324      0.5          
   3766000  -604.31866     -56.370293      219.8596       0.5          
   3767000  -604.13465      28.380684      222.54351      0.5          
   3768000  -604.0721      -66.2426        223.35534      0.5          
   3769000  -604.05623      90.568689      218.69124      0.5          
   3770000  -603.9907       65.05945       220.23912      0.5          
   3771000  -604.36077     -1.4524977      221.35508      0.5          
   3772000  -604.09191      160.9889       220.72565      0.5          
   3773000  -604.12716     -91.601103      221.62489      0.5          
   3774000  -604.1166       106.98399      221.11787      0.5          
   3775000  -604.0986       114.77197      217.85678      0.5          
   3776000  -603.82851      162.53591      219.37852      0.5          
   3777000  -603.91021     -202.69531      219.75734      0.5          
   3778000  -604.07072     -68.071497      219.93474      0.5          
   3779000  -604.05571     -52.720372      221.09279      0.5          
   3780000  -603.97448      67.710567      220.48688      0.5          
   3781000  -604.1205       165.92838      218.56221      0.5          
   3782000  -604.03697     -33.297465      218.52389      0.5          
   3783000  -604.11301     -121.33005      218.12975      0.5          
   3784000  -604.33198     -33.030525      219.25573      0.5          
   3785000  -604.26325     -325.27666      217.55529      0.5          
   3786000  -604.55391      145.03368      219.37501      0.5          
   3787000  -604.63276      43.06909       218.22434      0.5          
   3788000  -604.48554     -51.387475      217.32179      0.5          
   3789000  -604.45164      83.969574      218.95276      0.5          
   3790000  -604.23908      79.669643      218.77495      0.5          
   3791000  -604.55413      227.74966      220.16438      0.5          
   3792000  -604.54013     -83.57454       221.47497      0.5          
   3793000  -604.54199     -64.064436      219.84994      0.5          
   3794000  -604.33225     -145.09288      220.25946      0.5          
   3795000  -604.49689      100.37749      220.50325      0.5          
   3796000  -604.50131     -149.82238      219.09585      0.5          
   3797000  -604.51021      250.35494      218.90622      0.5          
   3798000  -604.43972      71.113179      219.63166      0.5          
   3799000  -604.24534      92.194901      220.88067      0.5          
   3800000  -604.12346      132.89377      217.71763      0.5          
   3801000  -604.46437     -52.638346      221.02923      0.5          
   3802000  -604.32857     -200.2361       220.46516      0.5          
   3803000  -604.33399      78.210367      220.49814      0.5          
   3804000  -604.21651      77.09364       218.90035      0.5          
   3805000  -604.41273     -43.762152      218.3823       0.5          
   3806000  -604.31932     -40.143013      218.93127      0.5          
   3807000  -604.40773      76.211308      220.73136      0.5          
   3808000  -604.41842      50.488399      217.5821       0.5          
   3809000  -604.56231     -134.97676      218.63835      0.5          
   3810000  -604.51225     -122.89573      219.99         0.5          
   3811000  -604.66411      85.986397      219.18844      0.5          
   3812000  -604.81637     -130.01983      220.61834      0.5          
   3813000  -604.73877     -233.24094      218.27343      0.5          
   3814000  -604.64166      72.820852      217.76471      0.5          
   3815000  -604.93594      74.080524      217.75631      0.5          
   3816000  -604.91603     -8.9762797      221.00624      0.5          
   3817000  -604.59665     -164.50599      218.32261      0.5          
   3818000  -604.54371     -72.959548      218.37271      0.5          
   3819000  -604.90907     -95.803619      221.9782       0.5          
   3820000  -604.97261      100.40143      218.83676      0.5          
   3821000  -605.13327      93.49461       221.1987       0.5          
   3822000  -604.67831     -6.3620178      218.54071      0.5          
   3823000  -604.51538     -56.06305       216.85804      0.5          
   3824000  -604.95401      31.29133       222.15416      0.5          
   3825000  -605.17306      175.39378      219.39833      0.5          
   3826000  -604.9764      -19.367006      220.75226      0.5          
   3827000  -604.76542     -232.25339      219.57682      0.5          
   3828000  -604.7666      -37.243457      221.94378      0.5          
   3829000  -605.03788      181.88559      221.89333      0.5          
   3830000  -605.27849     -165.71546      221.18616      0.5          
   3831000  -605.18233      110.82691      222.85484      0.5          
   3832000  -604.71811      110.4567       219.54095      0.5          
   3833000  -605.00261      50.987806      218.64006      0.5          
   3834000  -604.96576      15.946957      220.31255      0.5          
   3835000  -604.86852      110.20738      219.19962      0.5          
   3836000  -604.56388     -105.62913      220.76631      0.5          
   3837000  -604.73208      127.20182      217.91356      0.5          
   3838000  -605.05641      192.82763      221.28028      0.5          
   3839000  -605.05627     -225.68723      221.21269      0.5          
   3840000  -604.73898     -47.632369      220.55637      0.5          
   3841000  -604.88027      103.80939      219.21479      0.5          
   3842000  -604.75418      53.782082      219.85083      0.5          
   3843000  -604.89697     -245.59811      218.78054      0.5          
   3844000  -604.66538     -144.67705      221.45991      0.5          
   3845000  -604.61676      206.90414      215.67657      0.5          
   3846000  -604.79403     -109.61555      219.49926      0.5          
   3847000  -604.76885     -93.516119      221.832        0.5          
   3848000  -604.68016      228.21247      219.24084      0.5          
   3849000  -604.43122     -136.06813      218.88665      0.5          
   3850000  -604.48715     -9.5417414      217.43121      0.5          
   3851000  -604.67926      54.515591      218.67435      0.5          
   3852000  -604.90158      125.27558      222.85775      0.5          
   3853000  -604.48836      5.9981873      217.52738      0.5          
   3854000  -604.65761      42.225166      219.87997      0.5          
   3855000  -604.91174      24.323599      221.02965      0.5          
   3856000  -604.9572       267.48883      222.18693      0.5          
   3857000  -604.38854     -210.44383      215.26868      0.5          
   3858000  -604.48013      118.39393      221.46258      0.5          
   3859000  -604.87483      42.164918      220.03131      0.5          
   3860000  -605.16467     -166.99841      219.69786      0.5          
   3861000  -604.79708      60.945645      219.637        0.5          
   3862000  -604.76169      104.51576      221.1398       0.5          
   3863000  -604.86825      51.19975       220.15913      0.5          
   3864000  -605.01529      88.825537      221.55507      0.5          
   3865000  -604.77996     -160.39628      220.53557      0.5          
   3866000  -604.43003     -48.458341      220.88306      0.5          
   3867000  -604.61891      302.30151      220.97086      0.5          
   3868000  -604.77967     -67.568922      223.05158      0.5          
   3869000  -604.86443     -174.96225      222.03545      0.5          
   3870000  -604.4611      -34.479773      220.70964      0.5          
   3871000  -604.4947       141.82947      220.72634      0.5          
   3872000  -604.61616      276.64865      221.2319       0.5          
   3873000  -604.5058      -46.626415      218.0109       0.5          
   3874000  -604.55188     -247.92582      219.29887      0.5          
   3875000  -604.69298      160.60845      220.78809      0.5          
   3876000  -604.60311     -23.288764      218.54948      0.5          
   3877000  -604.48671     -372.83039      218.64032      0.5          
   3878000  -604.67095      202.6432       221.41837      0.5          
   3879000  -604.73216     -18.945831      219.3637       0.5          
   3880000  -604.37646     -180.4424       220.27717      0.5          
   3881000  -604.22937     -59.726876      220.31096      0.5          
   3882000  -604.20233      41.709669      216.96672      0.5          
   3883000  -604.52456     -82.739205      219.02607      0.5          
   3884000  -604.581        124.1358       219.42141      0.5          
   3885000  -604.3063       250.68913      220.78145      0.5          
   3886000  -604.60575     -222.27038      219.93107      0.5          
   3887000  -604.61755      21.663042      218.51951      0.5          
   3888000  -604.56335      154.5258       217.83135      0.5          
   3889000  -604.7389       111.70275      221.22209      0.5          
   3890000  -604.73967     -14.401325      218.59486      0.5          
   3891000  -604.44411     -183.73091      221.04933      0.5          
   3892000  -604.62381     -9.2311729      219.54406      0.5          
   3893000  -604.50525     -309.95904      221.37454      0.5          
   3894000  -604.7216       222.95476      219.07146      0.5          
   3895000  -604.5618       231.51511      218.88303      0.5          
   3896000  -604.59838     -100.74262      218.71919      0.5          
   3897000  -604.44305      43.269021      217.77946      0.5          
   3898000  -604.87645      157.99895      222.59758      0.5          
   3899000  -604.91374      42.002318      220.65183      0.5          
   3900000  -604.67172      19.003661      218.32586      0.5          
   3901000  -604.34695      150.70928      218.31305      0.5          
   3902000  -604.5954       181.32464      218.76341      0.5          
   3903000  -604.80197     -332.68013      221.2427       0.5          
   3904000  -604.75924      40.079546      222.98034      0.5          
   3905000  -604.2664       28.73923       219.47625      0.5          
   3906000  -604.1795      -5.6204614      220.7848       0.5          
   3907000  -604.70662      20.493879      221.1577       0.5          
   3908000  -604.31479     -61.695366      221.29869      0.5          
   3909000  -604.16247      138.95917      221.52452      0.5          
   3910000  -604.1775       227.93917      219.59847      0.5          
   3911000  -604.18584     -99.18901       221.61298      0.5          
   3912000  -604.27525     -173.68896      223.13708      0.5          
   3913000  -604.39265      45.059199      222.06886      0.5          
   3914000  -604.40856      66.503917      222.16146      0.5          
   3915000  -604.06025     -151.37832      219.61326      0.5          
   3916000  -603.92261      291.76566      218.39881      0.5          
   3917000  -604.1029       38.009982      218.83607      0.5          
   3918000  -604.18839     -133.57074      220.67749      0.5          
   3919000  -604.22382      222.48867      219.69305      0.5          
   3920000  -604.17489     -31.254803      219.62953      0.5          
   3921000  -604.17724     -316.71328      221.22359      0.5          
   3922000  -603.94269      191.94124      219.62372      0.5          
   3923000  -603.96815     -53.462799      217.02685      0.5          
   3924000  -604.04507     -290.16528      218.02274      0.5          
   3925000  -603.97776      0.08864084     217.81132      0.5          
   3926000  -604.04604      30.149697      216.82041      0.5          
   3927000  -604.26824      112.41568      220.24741      0.5          
   3928000  -603.97198      197.98894      220.85769      0.5          
   3929000  -603.88753      75.952107      219.61941      0.5          
   3930000  -604.09971     -28.204454      218.43658      0.5          
   3931000  -603.96761     -213.58103      219.70023      0.5          
   3932000  -603.90687     -80.459087      219.09394      0.5          
   3933000  -603.64859      46.391134      219.52131      0.5          
   3934000  -604.13042      226.97201      220.38738      0.5          
   3935000  -603.83414     -41.648364      218.57861      0.5          
   3936000  -604.00753     -94.586617      220.01719      0.5          
   3937000  -603.72998      26.275376      220.3729       0.5          
   3938000  -604.02546      84.324213      220.14688      0.5          
   3939000  -603.95591      243.00502      218.56538      0.5          
   3940000  -603.99713     -121.69696      220.16834      0.5          
   3941000  -603.89537      159.18841      222.10494      0.5          
   3942000  -603.7361      -7.2638202      220.20882      0.5          
   3943000  -603.65374     -101.31023      218.74557      0.5          
   3944000  -603.8923       131.05322      216.46766      0.5          
   3945000  -604.33364      118.31984      221.97906      0.5          
   3946000  -604.05166     -298.53837      219.76173      0.5          
   3947000  -603.72866      91.916996      216.6504       0.5          
   3948000  -603.71624      99.219219      218.69747      0.5          
   3949000  -603.9489      -98.891404      222.36799      0.5          
   3950000  -604.10239     -60.036899      221.43055      0.5          
   3951000  -603.73956      31.97406       219.39122      0.5          
   3952000  -603.36958     -299.16012      219.70919      0.5          
   3953000  -603.82328      0.94522116     219.97559      0.5          
   3954000  -603.8612       168.72921      218.9476       0.5          
   3955000  -603.29789      210.43876      220.08787      0.5          
   3956000  -603.45128     -95.244858      219.1915       0.5          
   3957000  -603.28163     -226.04162      216.53873      0.5          
   3958000  -603.48469      47.779529      219.49475      0.5          
   3959000  -603.3137      -255.69006      217.57466      0.5          
   3960000  -603.2564       266.31538      218.08321      0.5          
   3961000  -603.50094      21.9993        219.11863      0.5          
   3962000  -603.48541     -2.2225972      219.54313      0.5          
   3963000  -603.41551      258.45014      218.16305      0.5          
   3964000  -603.22683      201.1649       218.53473      0.5          
   3965000  -603.40566      16.069827      217.54401      0.5          
   3966000  -603.63055      21.786337      219.37422      0.5          
   3967000  -603.39692      165.62399      220.0705       0.5          
   3968000  -603.21891     -41.885269      217.96838      0.5          
   3969000  -603.04854     -201.78373      218.9688       0.5          
   3970000  -602.90949      72.235472      218.81725      0.5          
   3971000  -603.09803      6.8470567      218.25504      0.5          
   3972000  -603.22882      50.633748      222.83712      0.5          
   3973000  -603.15609      134.21675      218.59573      0.5          
   3974000  -602.73349     -275.17982      220.27838      0.5          
   3975000  -602.72406     -132.304        219.56867      0.5          
   3976000  -602.9428       259.49664      219.62951      0.5          
   3977000  -602.80824      102.7907       219.98143      0.5          
   3978000  -602.49703     -39.15788       217.98998      0.5          
   3979000  -602.67245      35.590926      215.17125      0.5          
   3980000  -602.76623      216.64662      217.03861      0.5          
   3981000  -602.74959     -39.613003      220.32593      0.5          
   3982000  -602.88095     -134.97189      219.95744      0.5          
   3983000  -602.7938       37.905892      219.30321      0.5          
   3984000  -602.82017      38.493841      218.35959      0.5          
   3985000  -602.87364      90.405101      219.0025       0.5          
   3986000  -602.83604     -83.086243      220.80426      0.5          
   3987000  -602.40727     -165.00694      218.05426      0.5          
   3988000  -602.84139     -11.323868      217.6864       0.5          
   3989000  -602.77047      149.80514      218.09088      0.5          
   3990000  -602.77789     -103.95611      218.87014      0.5          
   3991000  -602.72279     -28.51616       217.45894      0.5          
   3992000  -602.6766       110.87367      217.65837      0.5          
   3993000  -602.84672     -46.266621      219.44446      0.5          
   3994000  -603.14764      16.860188      219.02068      0.5          
   3995000  -602.95479      137.56405      218.32042      0.5          
   3996000  -602.61789      103.6509       215.99027      0.5          
   3997000  -603.00645      132.36358      217.5133       0.5          
   3998000  -603.22453     -88.50115       220.16367      0.5          
   3999000  -602.77313      72.653192      217.55545      0.5          
   4000000  -602.76877      239.51495      215.97999      0.5          
Loop time of 14989.5 on 8 procs for 2000000 steps with 7050 atoms

Performance: 5.764 ns/day, 4.164 hours/ns, 133.427 timesteps/s, 940.659 katom-step/s
99.4% CPU use with 8 MPI tasks x 1 OpenMP threads

MPI task timing breakdown:
Section |  min time  |  avg time  |  max time  |%varavg| %total
---------------------------------------------------------------
Pair    | 9640.8     | 10865      | 12113      |1126.9 | 72.48
Bond    | 44.974     | 47.102     | 49.074     |  23.2 |  0.31
Kspace  | 2237.9     | 3480.8     | 4694.6     |1977.3 | 23.22
Neigh   | 100.73     | 100.85     | 100.94     |   0.6 |  0.67
Comm    | 334.23     | 354.74     | 375.78     |  96.1 |  2.37
Output  | 1.0922     | 1.1073     | 1.1535     |   1.7 |  0.01
Modify  | 118.77     | 129.11     | 138.93     |  78.0 |  0.86
Other   |            | 11.17      |            |       |  0.07

Nlocal:         881.25 ave         989 max         798 min
Histogram: 2 2 0 0 0 0 1 1 1 1
Nghost:        7898.12 ave        8402 max        7438 min
Histogram: 4 0 0 0 0 0 0 0 1 3
Neighs:         378848 ave      453499 max      311963 min
Histogram: 3 1 0 0 0 0 0 1 1 2

Total # of neighbors = 3030785
Ave neighs/atom = 429.89858
Ave special neighs/atom = 2
Neighbor list builds = 8272
Dangerous builds = 0
System init for write_data ...
PPPM initialization ...
  using 12-bit tables for long-range coulomb (src/kspace.cpp:342)
  G vector (1/distance) = 0.20169663
  grid = 24 24 80
  stencil order = 5
  estimated absolute RMS force accuracy = 0.00286774
  estimated relative force accuracy = 8.6361139e-06
  using single precision FFTW3
  3d grid and FFT values/proc = 16967 5760
Generated 1 of 1 mixed pair_coeff terms from arithmetic mixing rule
Last active /omp style is kspace_style pppm/omp
