LAMMPS data file via write_data, version 29 Aug 2024, timestep = 4000000, units = real

7050 atoms
2 atom types
4700 bonds
1 bond types
2350 angles
1 angle types

0 40 xlo xhi
0 40 ylo yhi
0 240 zlo zhi

Masses

1 12.0107
2 15.9994

Pair Coeffs # lj/cut/coul/long/omp

1 0.0536545 2.8
2 0.156989 3.05

Bond Coeffs # harmonic/omp

1 1028.27 1.16

Angle Coeffs # harmonic/omp

1 55.96 180

Atoms # full

3736 1246 1 0.7 7.4068964875832055 6.6056878857403465 7.026482355428482 -4 0 1
3737 1246 2 -0.35 7.440220880631829 7.654959844322486 7.5069956340982955 -4 0 1
3738 1246 2 -0.35 7.380355000074271 5.515477223998534 6.590434040138018 -4 0 1
1038 346 2 -0.35 13.777500525380553 3.674532327967621 3.613821798064815 -4 -7 1
1036 346 1 0.7 12.697686654629845 4.059642734179392 3.8447490425835085 -4 -7 1
1037 346 2 -0.35 11.605887114978291 4.3755966060935325 4.133282165929805 -4 -7 1
5208 1736 2 -0.35 8.122789186499537 19.930616321527577 4.921628253521957 0 -4 1
575 192 2 -0.35 3.021148467530202 4.773319806031467 25.750383688837715 -3 -2 0
576 192 2 -0.35 2.218387421714822 3.9751713611126256 27.78313288874498 -3 -2 0
574 192 1 0.7 2.675333382124641 4.381550422933342 26.793726208495258 -3 -2 0
3592 1198 1 0.7 18.949293550265025 5.4749766266027065 32.03572489502975 1 0 0
3594 1198 2 -0.35 19.120926363942395 4.505869602348949 31.44521236634563 1 0 0
3593 1198 2 -0.35 18.73224357836534 6.462207194026645 32.62227896276591 1 0 0
3245 1082 2 -0.35 4.907771038088376 17.82324783752471 31.934858971102354 1 -1 0
3244 1082 1 0.7 4.7432682694819714 17.008294998778428 32.77877627597517 1 -1 0
3246 1082 2 -0.35 4.603463810133062 16.181538676885676 33.60965916851872 1 -1 0
1566 522 2 -0.35 19.264521360451727 13.131461440726715 33.52599102493512 4 -4 1
1564 522 1 0.7 18.540373941372973 13.895347341172926 34.084460387991385 4 -4 1
1565 522 2 -0.35 17.853965889442343 14.555957172815406 34.75199646590061 4 -4 1
4990 1664 1 0.7 0.5906851629451003 13.282139970605138 38.21972777898655 1 -1 0
4991 1664 2 -0.35 1.2950896734764266 14.071497156958579 38.76997982428654 1 -1 0
2237 746 2 -0.35 18.58056603612812 14.49211765293807 42.02494317235459 0 -3 0
2236 746 1 0.7 18.664105882397592 13.544283060645695 42.64073807131981 0 -3 0
2238 746 2 -0.35 18.8237356263945 12.664252605535713 43.35701268081509 0 -3 0
790 264 1 0.7 0.9206237968434507 1.2945121378519786 65.4325206064103 0 -1 1
3522 1174 2 -0.35 14.825547260024376 6.0167493701097685 62.92386544545212 0 2 0
3520 1174 1 0.7 13.94322682171744 5.25027962205026 63.01534399054845 0 2 0
3521 1174 2 -0.35 13.032224662127962 4.554632385041518 62.98644563113454 0 2 0
4644 1548 2 -0.35 3.32425910601458 11.251334041608898 65.0893993715524 0 1 0
5996 1999 2 -0.35 4.988490756393488 16.20804663242758 65.51882793431595 4 -3 1
4193 1398 2 -0.35 0.16679822255147708 15.771867605599322 65.19312788107644 3 -2 0
4007 1336 2 -0.35 10.87847049776419 12.489896987726198 61.88272656640922 0 -1 0
81 27 2 -0.35 10.35108805705976 14.40618352307438 64.92975316034857 0 1 0
4006 1336 1 0.7 11.682011731010247 13.29574410883039 61.9653951337093 0 -1 0
4008 1336 2 -0.35 12.407752692813057 14.209312920565775 62.038163787464995 0 -1 0
6233 2078 2 -0.35 15.25540824529859 15.773326018255867 61.83415523505586 2 2 0
3274 1092 1 0.7 11.419948348065152 19.954707711581012 64.01920695484833 3 0 0
6232 2078 1 0.7 14.874157941155735 15.908520848953964 62.896862606876184 2 2 0
6234 2078 2 -0.35 14.606141964651336 15.997067144818729 64.02025582881258 2 2 0
3276 1092 2 -0.35 10.429798036364367 19.894722715660915 64.6254740252365 3 0 0
792 264 2 -0.35 1.9139178552878398 1.185941590502275 65.99504729136379 0 -1 1
3228 1076 2 -0.35 8.96712669819761 9.768645527919658 71.41196447102355 4 2 1
3226 1076 1 0.7 9.83561913945641 9.399936801840319 70.7287381158489 4 2 1
6190 2064 1 0.7 2.212583916572907 5.068762202456419 71.05462066750496 1 0 0
6192 2064 2 -0.35 2.430116682853877 4.55280651352747 72.0781613882626 1 0 0
6191 2064 2 -0.35 2.1036601917223443 5.650020864292182 70.06824930383422 1 0 0
241 81 1 0.7 4.252403509312929 2.2086171925900002 73.08549991647537 -4 -2 0
691 231 1 0.7 8.701738549984768 9.606270246348014 74.46034330706968 2 -1 0
146 49 2 -0.35 5.339628454977956 5.3085859934629 72.25552687440181 -1 1 0
242 81 2 -0.35 3.9171473849582017 1.5391589716003002 72.21086392970376 -4 -2 0
6476 2159 2 -0.35 3.2658000213246807 2.529833818005136 69.2963748737346 4 -4 1
693 231 2 -0.35 8.05142384310433 8.649948843457164 74.51463731164202 2 -1 0
6475 2159 1 0.7 2.1360660191347876 2.251103758721229 69.28766533874236 4 -4 1
6477 2159 2 -0.35 0.9589062355561959 2.263320992766845 69.25833877546339 4 -4 1
2034 678 2 -0.35 0.2460747734744173 9.784673664263673 66.84182592566263 11 -2 0
243 81 2 -0.35 4.565797918110547 2.8722927632851873 73.99610498632249 -4 -2 0
145 49 1 0.7 5.994809656067533 5.52529585808958 73.20226861127483 -1 1 0
6726 2242 2 -0.35 1.3814292483581339 9.16196611063017 71.39241604949252 2 1 0
6724 2242 1 0.7 0.9191338815496292 9.755345970372613 72.27681014151375 2 1 0
5030 1677 2 -0.35 3.880088268092556 7.327413503400609 73.98081764685712 0 3 0
147 49 2 -0.35 6.645280651913535 5.753939399021084 74.13298548129832 -1 1 0
5029 1677 1 0.7 2.9983923491312265 7.40442944011276 74.71217370289631 0 3 0
3560 1187 2 -0.35 1.1629263658334976 0.04388639337047806 71.96275202002069 6 -1 0
3227 1076 2 -0.35 10.644733515318833 9.041429808719514 70.0033231389512 4 2 1
6097 2033 1 0.7 17.218348772060914 1.6561089509615676 67.74075730430036 -2 4 0
2306 769 2 -0.35 14.78117748282968 5.299408149998548 69.90932745676992 3 2 0
2307 769 2 -0.35 14.33551800064773 7.385623815537825 68.93101575276069 3 2 0
2305 769 1 0.7 14.545502411633056 6.324582944974258 69.39986019879328 3 2 0
1780 594 1 0.7 12.427494995581846 8.050065155458498 73.36731880807395 -4 -1 1
1782 594 2 -0.35 11.351755945257452 8.352474626018267 73.22779192462166 -4 -1 1
1781 594 2 -0.35 13.545699891029264 7.783522166686536 73.35350841537642 -4 -1 1
2433 811 2 -0.35 15.402975332204276 4.990510061619463 73.9731089407758 2 -1 1
4535 1512 2 -0.35 19.506988071860928 6.080764579212295 72.48880030393416 -1 -5 1
2153 718 2 -0.35 16.284549428683682 2.3948626319639454 72.49186206424206 0 2 0
4534 1512 1 0.7 19.55836709229538 7.198956375644898 72.17096504758238 -1 -5 1
2152 718 1 0.7 15.09748624104221 2.3649224467420433 72.41766789015611 0 2 0
2154 718 2 -0.35 13.93530007056527 2.3837005584819626 72.3654918099309 0 2 0
815 272 2 -0.35 12.194442112225472 5.183839009744279 74.31646547061919 2 1 0
2462 821 2 -0.35 19.97264967696138 3.1688462180180017 74.54347721962314 -1 2 0
6098 2033 2 -0.35 17.389577914839712 0.5683010608226734 67.40558193243207 -2 4 0
6099 2033 2 -0.35 16.888030668188964 2.7357504718877164 68.12864518662406 -2 4 0
6262 2088 1 0.7 17.247017522785132 9.848014437683442 72.65526286195212 -1 -1 0
6263 2088 2 -0.35 16.598920893247616 9.460728797601515 71.80127063194625 -1 -1 0
4536 1512 2 -0.35 19.575111066886176 8.316354885706483 71.85350276748561 -1 -5 1
814 272 1 0.7 11.933960730724475 4.08548263738063 74.6243575445607 2 1 0
2431 811 1 0.7 15.749531046233418 5.796501102292745 74.7283626067381 2 -1 1
6771 2257 2 -0.35 10.137579932786329 0.026920205792315244 68.87357391488031 0 1 0
4050 1350 2 -0.35 15.260350686893425 0.12761094514474536 70.24715054048427 -1 1 0
1754 585 2 -0.35 8.701034829997509 10.115534695102644 65.82495117343498 1 1 0
4642 1548 1 0.7 2.709783436500956 12.14477042711338 65.53760996383842 0 1 0
1753 585 1 0.7 9.663550636241041 10.78051599394316 65.90520366549573 1 1 0
4396 1466 1 0.7 4.808139734800421 11.58942183469553 73.53093659698472 2 0 0
6024 2008 2 -0.35 0.0947084126640313 15.040123157029852 74.8412486253929 -4 0 1
4192 1398 1 0.7 0.6855517124830093 16.290548643405806 66.10499939689686 3 -2 0
4398 1466 2 -0.35 3.867518625535067 11.89739838991526 72.88375998857225 2 0 0
4397 1466 2 -0.35 5.676187282235837 11.233272903841447 74.21956021710574 2 0 0
4643 1548 2 -0.35 2.2157661573654055 13.105682901174053 65.98003053339528 0 1 0
2155 719 1 0.7 3.239861800677941 12.19919064317665 69.30140236651793 2 1 0
2156 719 2 -0.35 4.069308715816028 12.870275386347604 69.75924774890885 2 1 0
2157 719 2 -0.35 2.3788943998115397 11.548673053978415 68.86152617673854 2 1 0
5995 1999 1 0.7 5.073196808621895 16.162624643605245 66.67820790044784 4 -3 1
5997 1999 2 -0.35 5.144269314872911 15.923546400541808 67.80641597134674 4 -3 1
6157 2053 1 0.7 0.4487436113210283 15.752302917669967 71.35339972517039 0 0 0
6159 2053 2 -0.35 1.0635425309717617 15.081166382732933 70.64017798992441 0 0 0
3980 1327 2 -0.35 8.474986766417077 16.832770408187475 67.77180184565746 2 2 0
3979 1327 1 0.7 8.55641097224909 16.11628349230034 68.7205330357504 2 2 0
3981 1327 2 -0.35 8.584347404786994 15.517508868406672 69.74480577204041 2 2 0
438 146 2 -0.35 1.959113909675938 17.89329239283382 70.07361889675603 1 -5 0
2759 920 2 -0.35 3.165439477340202 16.34177675263632 72.62861210045061 -1 0 0
436 146 1 0.7 2.356473150455038 18.986042591633083 70.04550434280486 1 -5 0
3554 1185 2 -0.35 8.84547629063567 11.713335305196075 69.0577507775953 0 -6 0
3553 1185 1 0.7 9.77456106524544 12.218368827897052 69.49947405818934 0 -6 0
2758 920 1 0.7 3.0582403765338113 16.779684262155776 73.70294992408714 -1 0 0
2760 920 2 -0.35 2.9989257139475507 17.28529020434405 74.76783189618638 -1 0 0
2479 827 1 0.7 6.099557458285698 16.04337028140515 71.66447291458071 1 1 0
2481 827 2 -0.35 6.12839020843078 14.900905809967288 71.87232559563552 1 1 0
2480 827 2 -0.35 5.99235583519042 17.19313355654932 71.55186376553345 1 1 0
517 173 1 0.7 9.513065907118271 17.81506928245917 73.3040711682923 0 0 0
6725 2242 2 -0.35 0.44544496196426675 10.404165680466805 73.11084386341605 2 1 0
519 173 2 -0.35 9.643001951007957 18.47360756103126 72.33325402859653 0 0 0
518 173 2 -0.35 9.311093340231247 17.210922334363815 74.29039621255407 0 0 0
692 231 2 -0.35 9.219083531785712 10.639137604309106 74.41874235386899 2 -1 0
4194 1398 2 -0.35 1.1908678176357879 16.82780596447468 67.01680027683364 3 -2 0
6105 2035 2 -0.35 6.340179422355527 18.26862419542444 74.70016342583828 0 0 0
2310 770 2 -0.35 4.246468743465302 14.288964328153487 74.88897470212382 0 1 0
6992 2331 2 -0.35 3.7246518749594157 19.623707533006886 72.8975668848376 6 0 1
2253 751 2 -0.35 6.195927790477162 19.863887039861805 70.24133302827285 0 -5 0
1755 585 2 -0.35 10.64563224979523 11.398157388574203 65.9001391698755 1 1 0
6264 2088 2 -0.35 17.890249154594812 10.313335652745012 73.50511497887375 -1 -1 0
3555 1185 2 -0.35 10.771632685673216 12.650824404700423 69.86156119245679 0 -6 0
80 27 2 -0.35 10.374718751116498 14.00707780363108 67.2079081618352 0 1 0
2264 755 2 -0.35 17.61407477785816 18.989404648511425 71.5156675361783 -1 3 0
79 27 1 0.7 10.385015191638596 14.234149391823685 66.0762676999513 0 1 0
6570 2190 2 -0.35 13.901448418927561 13.455422103311063 66.18228094083027 -2 -6 1
5679 1893 2 -0.35 13.232758090894778 10.149136339707729 70.63115971175955 3 0 0
1023 341 2 -0.35 17.341449894440963 11.69652881794997 66.76012452517827 -5 5 0
2176 726 1 0.7 17.78625194131195 15.24887595886197 69.45295671768248 -1 1 0
2178 726 2 -0.35 18.059475130429608 14.133985069547261 69.3617109837732 -1 1 0
1022 341 2 -0.35 17.14861164578231 11.251971012041116 69.04732915709792 -5 5 0
1021 341 1 0.7 17.234666860003085 11.489959069477557 67.90707698143234 -5 5 0
2177 726 2 -0.35 17.477838025918857 16.367938188428592 69.54017314891058 -1 1 0
2265 755 2 -0.35 18.78394410186894 19.935346068336482 69.71288018000989 -1 3 0
3957 1319 2 -0.35 11.832334871130886 15.906429228500077 69.72071564752734 -1 1 0
3955 1319 1 0.7 11.408675738792347 15.39188543456007 70.64293405563221 -1 1 0
3956 1319 2 -0.35 10.927652005911053 15.117292952431267 71.66534913315832 -1 1 0
2291 764 2 -0.35 13.884821685979325 19.71555327514157 66.09687583334211 2 1 0
5332 1778 1 0.7 14.817079362989498 16.425724836156668 71.505347315438 -2 -2 0
5333 1778 2 -0.35 14.778070285354792 17.393805425361506 72.17238004154055 -2 -2 0
5334 1778 2 -0.35 14.760568506226562 15.523535194211107 70.7721665963299 -2 -2 0
6568 2190 1 0.7 14.79719015051356 14.146262113891366 66.39488428462519 -2 -6 1
5677 1893 1 0.7 13.584354890525994 10.638203377589745 69.62197894134417 3 0 0
6569 2190 2 -0.35 15.702705768798008 14.815383359958602 66.68361008141973 -2 -6 1
5678 1893 2 -0.35 13.861165671087324 11.138241319618245 68.61432160657849 3 0 0
2290 764 1 0.7 14.160015497813387 18.924709115960432 66.86680096343927 2 1 0
2292 764 2 -0.35 14.430432889215838 18.05860350124161 67.57990966640011 2 1 0
2263 755 1 0.7 18.2208344151705 19.41109435637329 70.60556468953372 -1 3 0
2229 743 2 -0.35 12.29488469832754 19.2959469376702 73.42165549199107 -1 0 0
1313 438 2 -0.35 12.812639900467484 11.967292285165975 73.95850822911287 1 3 0
1312 438 1 0.7 13.179838985826073 12.658733463730735 73.08751277160425 1 3 0
1314 438 2 -0.35 13.45872053584337 13.319939654683354 72.17832782398013 1 3 0
5084 1695 2 -0.35 19.970604078602992 17.65224512632773 73.94012003192618 2 -2 1
4278 1426 2 -0.35 20.134094822995486 11.137218775001141 68.49334658910887 -1 2 0
550 184 1 0.7 5.519805420245476 2.863752921155564 83.93279960845064 2 1 0
2340 780 2 -0.35 1.6244508184832693 0.2360810804762521 75.55034958461364 1 5 0
551 184 2 -0.35 6.02496359093275 3.8994287868624387 83.9079938842225 2 1 0
2715 905 2 -0.35 0.9510600805661036 0.6939008969715785 81.41087160707636 0 1 0
2233 745 1 0.7 8.528650965899532 0.13755525488751139 76.12464773897486 -1 2 0
2234 745 2 -0.35 7.4852980388606944 0.3177442291559443 76.60180883064422 -1 2 0
1300 434 1 0.7 2.566259184646099 4.746313154585887 81.28206886819383 5 -1 1
1301 434 2 -0.35 3.596285622369495 4.374126375010037 80.89306297354776 5 -1 1
2894 965 2 -0.35 1.9760074987523846 8.537507688054012 81.771695014661 9 1 1
2893 965 1 0.7 1.7321308300479585 8.558252805913948 80.62776176938746 9 1 1
837 279 2 -0.35 2.841781451446843 4.841023566363241 77.05230151592657 1 0 0
836 279 2 -0.35 1.6742739139310239 2.8497272954492265 77.19476302426804 1 0 0
835 279 1 0.7 2.289498867958897 3.8232373973872464 77.12732680959985 1 0 0
5182 1728 1 0.7 6.005709933242543 3.1661136987522265 77.08851506774232 1 -2 0
5183 1728 2 -0.35 4.938354688723977 2.6842179896118923 77.12107470644376 1 -2 0
5184 1728 2 -0.35 7.088737296412637 3.6206537851503864 77.10500683829719 1 -2 0
2706 902 2 -0.35 6.06232396773019 7.440591524123477 84.21506202817154 -1 2 0
2704 902 1 0.7 5.164889187213467 7.040551415560046 83.58929644812554 -1 2 0
2705 902 2 -0.35 4.248288685893296 6.610396340765905 82.98721446902177 -1 2 0
2895 965 2 -0.35 1.5570323231925043 8.629611137411299 79.49618848443839 9 1 1
1769 590 2 -0.35 8.016043479991861 6.896016734924694 78.05434287173962 2 -1 0
1302 434 2 -0.35 1.553365293399891 5.103877725147733 81.71230552437218 5 -1 1
4355 1452 2 -0.35 6.6364510357350825 3.3265568692932934 80.50037584035736 1 0 0
1768 590 1 0.7 9.052238945517349 6.638856079720677 77.6653054895066 2 -1 0
4354 1452 1 0.7 7.572566866294501 2.6774529815129204 80.38412862525745 1 0 0
4356 1452 2 -0.35 8.52291470639036 2.0278916087758505 80.25639018132777 1 0 0
745 249 1 0.7 8.839139014344708 9.584352790614224 81.41575026625551 -3 -3 1
5031 1677 2 -0.35 2.048964865563229 7.421514076548172 75.41458822918905 0 3 0
747 249 2 -0.35 9.474102196031563 9.69741209333225 82.3580560441284 -3 -3 1
3065 1022 2 -0.35 8.923821922367125 5.033277427136421 83.02473700134009 0 1 0
1770 590 2 -0.35 10.071265964597911 6.335675203208195 77.23094422165184 2 -1 0
746 249 2 -0.35 8.17134598772206 9.579898326401471 80.46484374264841 -3 -3 1
4621 1541 1 0.7 8.994820947783865 1.2022356812400357 83.93087491822338 -1 -1 0
4622 1541 2 -0.35 9.984872243586008 0.9415506009029628 83.35292602669315 -1 -1 0
3064 1022 1 0.7 9.081951546833281 5.773377882167355 83.9044179411592 0 1 0
6076 2026 1 0.7 7.252167723483765 9.93672436377919 77.35874334236757 0 0 0
6077 2026 2 -0.35 8.437081129370295 9.974223479819921 77.44972930518149 0 0 0
1374 458 2 -0.35 4.448970655030891 0.22795452404398986 81.49930472204727 0 -2 0
552 184 2 -0.35 4.983492105017083 1.799694713512011 83.95987622870337 2 1 0
1187 396 2 -0.35 19.166886435187706 2.4248166793474506 83.64160401059299 0 1 0
1188 396 2 -0.35 16.991954079060946 3.2831418357017434 83.80044702892351 0 1 0
816 272 2 -0.35 11.664892451711296 3.0421251358822716 75.00309383136376 2 1 0
5877 1959 2 -0.35 19.58578044404248 3.141597759390047 78.94468923746354 2 1 0
2120 707 2 -0.35 15.560026711945989 1.7485415595824128 81.13242101508158 1 1 0
562 188 1 0.7 20.014526112856295 9.381181891253178 79.5669224746992 0 0 0
563 188 2 -0.35 19.099202104233196 8.657130942698814 79.53670657520631 0 0 0
2463 821 2 -0.35 18.025673803455504 4.28862646708992 75.22994051803275 -1 2 0
2461 821 1 0.7 18.989582576737575 3.7154898711323865 74.90079570509502 -1 2 0
1186 396 1 0.7 18.06722117681993 2.8179491814450675 83.77141408903893 0 1 0
2432 811 2 -0.35 16.135468154086226 6.601663967915627 75.44982156790088 2 -1 1
2054 685 2 -0.35 16.202233932625106 6.666089988104531 78.76678307280379 -2 1 0
2053 685 1 0.7 15.70554120882183 5.638959165612016 78.50544206007687 -2 1 0
2622 874 2 -0.35 13.570643897913282 9.073079113383804 76.21476029891215 1 0 0
5775 1925 2 -0.35 10.66169162221948 4.241370915556864 79.1671220900433 -1 1 0
2620 874 1 0.7 12.953163957031197 9.143200391273194 77.17445016219462 1 0 0
5774 1925 2 -0.35 11.595419655979951 2.1474250670125516 79.12131785837855 -1 1 0
5773 1925 1 0.7 11.169568158078851 3.19509476710088 79.12679041784499 -1 1 0
2239 747 1 0.7 11.744947893308657 7.7079996422710595 80.74925981855839 0 0 0
2241 747 2 -0.35 12.888359039148538 7.818726213510233 80.98214393968216 0 0 0
2240 747 2 -0.35 10.608348853799288 7.583738794096541 80.49233130768894 0 0 0
2621 874 2 -0.35 12.38629416606172 9.175576917535654 78.17921046015151 1 0 0
2055 685 2 -0.35 15.228117727525447 4.614314335535459 78.24292892919038 -2 1 0
3361 1121 1 0.7 14.055569025922892 5.024101279238275 81.90132843594607 2 -1 0
3363 1121 2 -0.35 15.07339329222664 5.005926985041562 81.34430341537563 2 -1 0
5440 1814 1 0.7 19.876907262215553 0.17118630865050233 80.9446895041881 -3 4 0
2119 707 1 0.7 16.618294184776467 2.2465784847434014 80.99709675057093 1 1 0
2121 707 2 -0.35 17.727384788634296 2.6377404546993812 80.87972141415445 1 1 0
3362 1121 2 -0.35 13.122987831803046 5.1944955883748145 82.57949738086249 2 -1 0
5573 1858 2 -0.35 16.129544573306095 9.794648012305359 80.48068295271845 -2 0 0
2679 893 2 -0.35 20.026596269579343 9.425757028137982 82.71852605590547 0 0 0
6023 2008 2 -0.35 0.08031708734134924 13.759181857392893 76.80761798982424 -4 0 1
606 202 2 -0.35 3.3205109633462095 17.88117268046154 84.21701641302059 0 2 1
4850 1617 2 -0.35 0.30827667307454 14.253489362624139 81.12584653107692 0 -1 0
6022 2008 1 0.7 0.09684142490753915 14.364129713597544 75.8020980951363 -4 0 1
6078 2026 2 -0.35 6.073140649241704 10.028211145584866 77.3030387099792 0 0 0
234 78 2 -0.35 0.5725267663642237 19.941365583780698 84.10464126038457 0 1 0
5639 1880 2 -0.35 0.609174846574836 11.649400991568262 79.49582255449788 3 0 0
2277 759 2 -0.35 5.804068536332711 16.78891802532194 83.20893235198295 1 -1 0
6103 2035 1 0.7 6.544491900635312 19.37368483123035 75.05362086628219 0 0 0
1083 361 2 -0.35 1.9435166580171817 19.119336792268406 81.35029302975109 1 1 0
6750 2250 2 -0.35 2.0288856925258036 15.915078613483225 77.31579731206 6 8 1
1081 361 1 0.7 1.842355355533054 19.96131548093834 80.57699105983247 1 1 0
2297 766 2 -0.35 2.417926772788479 12.41674079447649 76.77776462134975 1 3 0
2298 766 2 -0.35 3.091311956240244 10.37129145090114 76.05609572425934 1 3 0
2296 766 1 0.7 2.738847425185895 11.403410926410976 76.41144669777897 1 3 0
756 252 2 -0.35 7.740816889714005 18.252080727730295 77.55801347131546 2 0 0
2308 770 1 0.7 4.792526743377767 14.823382585465595 75.74680662768328 0 1 0
2309 770 2 -0.35 5.380116327798462 15.341441904286704 76.60785189238013 0 1 0
670 224 1 0.7 4.637554723959504 11.283713489435012 79.94861835716735 -1 -1 0
671 224 2 -0.35 3.7363108533458482 10.561524159791286 79.68709658345368 -1 -1 0
6749 2250 2 -0.35 2.8462986386863793 17.88688935801285 78.24295851524356 6 8 1
672 224 2 -0.35 5.524205235885631 11.988789366145125 80.19847382555444 -1 -1 0
6748 2250 1 0.7 2.39775063562392 16.942282984565573 77.72447876099262 6 8 1
610 204 1 0.7 5.683086241754046 17.51346411017051 79.73954528928914 1 0 0
604 202 1 0.7 2.3869126851137072 17.26864204380435 83.89128343983433 0 2 1
3081 1027 2 -0.35 1.71903790372259 12.500432966785526 82.84404197727692 0 0 0
1206 402 2 -0.35 2.707053637710785 15.90263664799094 80.43786888628516 2 -1 1
1204 402 1 0.7 3.219156862003152 14.889615768974531 80.11769805836715 2 -1 1
611 204 2 -0.35 5.560968015670733 16.42675654067787 79.36724540302649 1 0 0
1205 402 2 -0.35 3.697872339790109 13.927537842687606 79.77591935657698 2 -1 1
612 204 2 -0.35 5.741153701263906 18.62911212027897 80.02513561400515 1 0 0
754 252 1 0.7 8.664062703477144 18.262599822903045 78.2633216112042 2 0 0
6496 2166 1 0.7 7.582927414125884 14.24609002448463 78.18919505128086 0 0 0
6498 2166 2 -0.35 7.140737853142111 13.230724011920517 77.80542396993357 0 0 0
6497 2166 2 -0.35 7.95897196884089 15.271787727675175 78.57528384352861 0 0 0
6491 2164 2 -0.35 9.058985315875985 16.615537901925215 81.60745708704759 -3 0 1
3079 1027 1 0.7 0.7394995885295996 11.89224618749239 82.88997265181872 0 0 0
6490 2164 1 0.7 9.67093278020284 17.514909244028935 82.02742604662234 -3 0 1
755 252 2 -0.35 9.558627282923393 18.32729616749492 79.03085019889215 2 0 0
605 202 2 -0.35 1.4921178852238306 16.669121797530295 83.50254763104734 0 2 1
5525 1842 2 -0.35 8.066291127559982 14.046811653913453 75.1203157007885 2 2 0
5524 1842 1 0.7 9.211570130023766 14.157946405830945 74.96666259163942 2 2 0
905 302 2 -0.35 15.485970859509571 12.364727787003691 82.06678798755041 0 -1 0
1793 598 2 -0.35 19.36351512460303 13.564650251973953 83.78585373972903 0 3 0
5255 1752 2 -0.35 16.524093326767748 13.612061726266827 79.5398712774775 -1 0 0
2883 961 2 -0.35 17.887457488756972 12.762989283618547 76.13392778192234 0 1 0
2677 893 1 0.7 19.89704430552601 10.098827865774007 83.64126046071573 0 0 0
5574 1858 2 -0.35 16.544056500390855 10.193220168300268 78.21915307993365 -2 0 0
5572 1858 1 0.7 16.285070719625374 10.018589642846095 79.36036291088591 -2 0 0
1503 501 2 -0.35 10.713342192934611 12.533538731868415 77.54107504717479 5 1 1
2882 961 2 -0.35 19.848924716318827 11.862730391938467 76.98728187716536 0 1 0
6492 2164 2 -0.35 10.316776904976958 18.358916358393117 82.5091625048167 -3 0 1
1251 417 2 -0.35 20.159764821496733 16.78688061959822 82.93316890689306 3 1 1
5254 1752 1 0.7 15.948342720649 14.542064882196817 79.94299924393151 -1 0 0
5766 1922 2 -0.35 12.589017918857495 18.6446059380316 80.35417096425063 0 1 0
2649 883 2 -0.35 10.439270560156311 14.659430950819758 79.66807258437551 1 2 0
6513 2171 2 -0.35 17.831407989588136 17.746117525875782 81.1992696487761 1 -3 1
6288 2096 2 -0.35 12.323738663813762 16.203653515688778 82.18922339533388 0 1 0
332 111 2 -0.35 13.839652570790975 13.01390801268045 77.93709601278185 -4 -5 0
6287 2096 2 -0.35 13.784519457322572 14.738764670177515 83.2154830697781 0 1 0
904 302 1 0.7 16.29555714620548 11.740515995320358 82.61079652936883 0 -1 0
6512 2171 2 -0.35 18.131351593177804 19.22627090419332 82.95516857295331 1 -3 1
3300 1100 2 -0.35 12.369354735090582 10.477182209925374 83.05986983007004 -7 4 1
5526 1842 2 -0.35 10.382726881753806 14.271021811506435 74.89690684370342 2 2 0
1025 342 2 -0.35 18.313399017834634 15.738771814889427 77.52029523560569 0 -1 0
1442 481 2 -0.35 16.668183334466395 16.572502569890478 83.64073572097377 1 2 1
2647 883 1 0.7 11.32426476811682 15.22824248654564 79.16827729384612 1 2 0
1501 501 1 0.7 10.489206920626994 11.999447701642454 78.54670224145627 5 1 1
331 111 1 0.7 13.918020406334781 13.534299176640532 76.9088930808813 -4 -5 0
1968 656 2 -0.35 14.092946765436619 18.681794493525 76.32058916745663 -1 -1 0
1967 656 2 -0.35 14.952205061631009 16.887917979480168 77.56012927471002 -1 -1 0
3298 1100 1 0.7 12.931673941373825 10.755957317985432 84.02991013855359 -7 4 1
1966 656 1 0.7 14.47662152819543 17.776441585292613 76.94308458845212 -1 -1 0
333 111 2 -0.35 13.970016217483314 14.115483712614603 75.90012799793618 -4 -5 0
906 302 2 -0.35 17.051066915181785 11.122941980262757 83.25728881382454 0 -1 0
5210 1737 2 -0.35 19.032715310898055 11.958336724265639 80.7242782544458 -1 -2 1
5764 1922 1 0.7 12.390371039280904 19.688834174644015 80.84838261067893 0 1 0
5209 1737 1 0.7 19.429038612527766 13.068006325977976 80.82160915943757 -1 -2 1
5211 1737 2 -0.35 19.794862159684143 14.19656967293059 80.88669199768856 -1 -2 1
2648 883 2 -0.35 12.218479575653763 15.834954004837078 78.70464161829975 1 2 0
5256 1752 2 -0.35 15.32566815922787 15.44270773908413 80.34034101675064 -1 0 0
1024 342 1 0.7 18.902659047291994 16.69378794352149 77.2987501005575 0 -1 0
2881 961 1 0.7 18.847001925232195 12.246395995983532 76.5354362365206 0 1 0
6511 2171 1 0.7 17.974274107066883 18.44564127886222 82.13830258759823 1 -3 1
1026 342 2 -0.35 19.488683790738936 17.645974645314958 76.96474296221663 0 -1 0
1502 501 2 -0.35 10.159555203861926 11.4753809638027 79.55347736069 5 1 1
6286 2096 1 0.7 13.056747597333647 15.45004443770062 82.67250852713336 0 1 0
1994 665 2 -0.35 16.831914030627033 19.97257980453763 75.34811413800293 1 0 0
3835 1279 1 0.7 3.9192142271175214 6.80556881911496 96.33141908647208 -1 1 0
3837 1279 2 -0.35 4.167944552803738 5.686059033946419 96.57305760636392 -1 1 0
4141 1381 1 0.7 0.561459869837927 4.758619738332021 91.65385760024583 -1 -1 0
4142 1381 2 -0.35 1.18102683329077 4.792608004100279 90.6810883611179 -1 -1 0
1456 486 1 0.7 2.465458023275721 2.871763814749577 93.923586859218 1 4 0
5750 1917 2 -0.35 0.5187905273920701 7.1615976405769946 94.47194291262339 -4 -2 0
5749 1917 1 0.7 1.52184109854128 6.998543303788145 93.92404386674055 -4 -2 0
826 276 1 0.7 3.4950449977416853 0.11007271289413602 87.20901430320791 -1 0 0
1549 517 1 0.7 6.030398813531418 6.2639760599202 93.56342946037236 0 0 0
1551 517 2 -0.35 5.822241114406296 6.105284823342548 92.43723026296368 0 0 0
513 171 2 -0.35 8.172596577245802 4.1665195945466085 93.70764964273258 -2 0 0
1550 517 2 -0.35 6.2671204032264605 6.345478428954782 94.68065127779006 0 0 0
511 171 1 0.7 7.301360634192619 3.5183244435378085 94.13853645164212 -2 0 0
828 276 2 -0.35 3.872241952163731 1.182595020408876 87.00904665719081 -1 0 0
1458 486 2 -0.35 1.6175106906445582 2.2800609536597034 94.39924224373888 1 4 0
5751 1917 2 -0.35 2.4956386514806828 6.860700662532375 93.32874953596642 -4 -2 0
512 171 2 -0.35 6.568706485028293 2.752252884241106 94.63926361374928 -2 0 0
6621 2207 2 -0.35 7.642316223445547 2.9749863329221276 90.83355629444539 -1 -1 0
1457 486 2 -0.35 3.2292898131428682 3.591012137222436 93.44640682166792 1 4 0
6619 2207 1 0.7 8.743556939978737 3.223054330677693 90.8703561353633 -1 -1 0
2588 863 2 -0.35 4.734153183350793 6.7378435936978 89.57356552874745 1 2 0
2587 863 1 0.7 4.838299121218417 7.697204172274027 90.23451621126344 1 2 0
2589 863 2 -0.35 4.923614686860294 8.570817426374232 90.99125697358866 1 2 0
6326 2109 2 -0.35 3.708540495118584 7.472387337634889 86.08666166742653 1 2 0
4202 1401 2 -0.35 9.177243109267796 5.986470931443563 95.95519132562245 1 1 0
302 101 2 -0.35 10.02640176381256 9.723750083575094 93.98652662775308 -2 0 0
3303 1101 2 -0.35 4.005938264419501 3.3606929318251026 90.42359445881559 2 3 1
301 101 1 0.7 9.211843777240771 9.031837650288095 93.50700636967235 -2 0 0
3302 1101 2 -0.35 5.552898109244502 3.778822621134346 88.72209828529597 2 3 1
3301 1101 1 0.7 4.819542646161761 3.5468635978090637 89.61294851344708 2 3 1
6325 2109 1 0.7 4.074911261476942 8.33359361743818 86.84519399459113 1 2 0
6327 2109 2 -0.35 4.4910095710947076 9.181311436186837 87.51646355044473 1 2 0
6982 2328 1 0.7 3.687938018192385 0.2402298291200194 91.40608259288767 -7 -21 0
3539 1180 2 -0.35 0.06329747226284416 1.596986981627171 87.98369521944176 1 -1 0
1387 463 1 0.7 7.506789460280064 6.425833285091037 88.36609774522992 -2 2 0
1388 463 2 -0.35 7.981933573134005 5.756576329570081 89.16458460009957 -2 2 0
3686 1229 2 -0.35 1.4863726153111547 3.4546146245401426 85.02557478452216 1 4 0
3685 1229 1 0.7 1.6051877284697298 3.8199588688261032 86.08045747288219 1 4 0
3687 1229 2 -0.35 1.7837928271335193 4.17670020298797 87.1684192788395 1 4 0
303 101 2 -0.35 8.42985203955239 8.365229210262505 92.95508865958462 -2 0 0
6984 2328 2 -0.35 3.2077161214122407 0.0686361520266646 92.45951274914789 -7 -21 0
369 123 2 -0.35 4.119617709228724 0.3928918382795974 95.58709667992804 0 1 -1
1389 463 2 -0.35 7.133857164241709 7.150611096693664 87.51606479368441 -2 2 0
367 123 1 0.7 4.956100173011402 0.04762269293990647 94.87931678926374 0 1 -1
6431 2144 2 -0.35 8.706796679178167 2.1260698975972003 87.48298264918417 4 1 1
1791 597 2 -0.35 6.172213363811197 9.549116878671015 97.16619187471073 2 1 0
6983 2328 2 -0.35 4.184344212730229 0.3403671294835283 90.3466105829284 -7 -21 0
3782 1261 2 -0.35 8.75721906375167 0.6735062649987971 93.19935854305938 -4 -1 0
3458 1153 2 -0.35 1.3200707867674608 7.850242161960899 88.22190615329639 0 0 0
4201 1401 1 0.7 9.737620945485897 5.890359213654203 96.96392217525566 1 1 0
6430 2144 1 0.7 8.34738552177559 3.139392820212057 87.05014357350883 4 1 1
1273 425 1 0.7 7.032978261060214 2.5218667057739403 97.49969004130693 1 -7 1
1275 425 2 -0.35 7.730480972673987 3.4494804412798175 97.39430449458746 1 -7 1
1274 425 2 -0.35 6.361168334724611 1.567047486102504 97.58540184172602 1 -7 1
4623 1541 2 -0.35 8.00559175606125 1.4761715232422268 84.46962397532519 -1 -1 0
6620 2207 2 -0.35 9.843925738839305 3.5549407379879323 90.92543039659719 -1 -1 0
6432 2144 2 -0.35 7.983814823853045 4.1342320393262755 86.58286582997457 4 1 1
1790 597 2 -0.35 6.019997160904401 9.214244011668951 94.90891585314577 2 1 0
1789 597 1 0.7 6.009825126881342 9.413403163051527 96.03385485191362 2 1 0