ITEM: TIMESTEP
0
ITEM: NUMBER OF NODES
224
ITEM: BOX BOUNDS
0 40
0 40
0 240
ITEM: NODES
1 1 0 0 0
2 1 18.75 0 0
3 1 18.75 18.75 0
4 1 0 18.75 0
5 1 0 0 86.7857
6 1 18.75 0 86.7857
7 1 18.75 18.75 86.7857
8 1 0 18.75 86.7857
9 1 0 0 86.7857
10 1 18.75 0 86.7857
11 1 18.75 18.75 86.7857
12 1 0 18.75 86.7857
13 1 0 0 100.179
14 1 18.75 0 100.179
15 1 18.75 18.75 100.179
16 1 0 18.75 100.179
17 1 0 0 100.179
18 1 18.75 0 100.179
19 1 18.75 18.75 100.179
20 1 0 18.75 100.179
21 1 0 0 113.036
22 1 18.75 0 113.036
23 1 18.75 18.75 113.036
24 1 0 18.75 113.036
25 1 0 0 113.036
26 1 18.75 0 113.036
27 1 18.75 18.75 113.036
28 1 0 18.75 113.036
29 1 0 0 125.893
30 1 18.75 0 125.893
31 1 18.75 18.75 125.893
32 1 0 18.75 125.893
33 1 0 0 125.893
34 1 18.75 0 125.893
35 1 18.75 18.75 125.893
36 1 0 18.75 125.893
37 1 0 0 139.821
38 1 18.75 0 139.821
39 1 18.75 18.75 139.821
40 1 0 18.75 139.821
41 1 0 0 139.821
42 1 18.75 0 139.821
43 1 18.75 18.75 139.821
44 1 0 18.75 139.821
45 1 0 0 153.214
46 1 18.75 0 153.214
47 1 18.75 18.75 153.214
48 1 0 18.75 153.214
49 1 0 0 153.214
50 1 18.75 0 153.214
51 1 18.75 18.75 153.214
52 1 0 18.75 153.214
53 1 0 0 240
54 1 18.75 0 240
55 1 18.75 18.75 240
56 1 0 18.75 240
57 1 0 18.75 0
58 1 18.75 18.75 0
59 1 18.75 40 0
60 1 0 40 0
61 1 0 18.75 86.7857
62 1 18.75 18.75 86.7857
63 1 18.75 40 86.7857
64 1 0 40 86.7857
65 1 0 18.75 86.7857
66 1 18.75 18.75 86.7857
67 1 18.75 40 86.7857
68 1 0 40 86.7857
69 1 0 18.75 100.179
70 1 18.75 18.75 100.179
71 1 18.75 40 100.179
72 1 0 40 100.179
73 1 0 18.75 100.179
74 1 18.75 18.75 100.179
75 1 18.75 40 100.179
76 1 0 40 100.179
77 1 0 18.75 113.036
78 1 18.75 18.75 113.036
79 1 18.75 40 113.036
80 1 0 40 113.036
81 1 0 18.75 113.036
82 1 18.75 18.75 113.036
83 1 18.75 40 113.036
84 1 0 40 113.036
85 1 0 18.75 125.893
86 1 18.75 18.75 125.893
87 1 18.75 40 125.893
88 1 0 40 125.893
89 1 0 18.75 125.893
90 1 18.75 18.75 125.893
91 1 18.75 40 125.893
92 1 0 40 125.893
93 1 0 18.75 139.821
94 1 18.75 18.75 139.821
95 1 18.75 40 139.821
96 1 0 40 139.821
97 1 0 18.75 139.821
98 1 18.75 18.75 139.821
99 1 18.75 40 139.821
100 1 0 40 139.821
101 1 0 18.75 153.214
102 1 18.75 18.75 153.214
103 1 18.75 40 153.214
104 1 0 40 153.214
105 1 0 18.75 153.214
106 1 18.75 18.75 153.214
107 1 18.75 40 153.214
108 1 0 40 153.214
109 1 0 18.75 240
110 1 18.75 18.75 240
111 1 18.75 40 240
112 1 0 40 240
113 1 18.75 0 0
114 1 40 0 0
115 1 40 18.75 0
116 1 18.75 18.75 0
117 1 18.75 0 86.7857
118 1 40 0 86.7857
119 1 40 18.75 86.7857
120 1 18.75 18.75 86.7857
121 1 18.75 0 86.7857
122 1 40 0 86.7857
123 1 40 18.75 86.7857
124 1 18.75 18.75 86.7857
125 1 18.75 0 100.179
126 1 40 0 100.179
127 1 40 18.75 100.179
128 1 18.75 18.75 100.179
129 1 18.75 0 100.179
130 1 40 0 100.179
131 1 40 18.75 100.179
132 1 18.75 18.75 100.179
133 1 18.75 0 113.036
134 1 40 0 113.036
135 1 40 18.75 113.036
136 1 18.75 18.75 113.036
137 1 18.75 0 113.036
138 1 40 0 113.036
139 1 40 18.75 113.036
140 1 18.75 18.75 113.036
141 1 18.75 0 125.893
142 1 40 0 125.893
143 1 40 18.75 125.893
144 1 18.75 18.75 125.893
145 1 18.75 0 125.893
146 1 40 0 125.893
147 1 40 18.75 125.893
148 1 18.75 18.75 125.893
149 1 18.75 0 139.821
150 1 40 0 139.821
151 1 40 18.75 139.821
152 1 18.75 18.75 139.821
153 1 18.75 0 139.821
154 1 40 0 139.821
155 1 40 18.75 139.821
156 1 18.75 18.75 139.821
157 1 18.75 0 153.214
158 1 40 0 153.214
159 1 40 18.75 153.214
160 1 18.75 18.75 153.214
161 1 18.75 0 153.214
162 1 40 0 153.214
163 1 40 18.75 153.214
164 1 18.75 18.75 153.214
165 1 18.75 0 240
166 1 40 0 240
167 1 40 18.75 240
168 1 18.75 18.75 240
169 1 18.75 18.75 0
170 1 40 18.75 0
171 1 40 40 0
172 1 18.75 40 0
173 1 18.75 18.75 86.7857
174 1 40 18.75 86.7857
175 1 40 40 86.7857
176 1 18.75 40 86.7857
177 1 18.75 18.75 86.7857
178 1 40 18.75 86.7857
179 1 40 40 86.7857
180 1 18.75 40 86.7857
181 1 18.75 18.75 100.179
182 1 40 18.75 100.179
183 1 40 40 100.179
184 1 18.75 40 100.179
185 1 18.75 18.75 100.179
186 1 40 18.75 100.179
187 1 40 40 100.179
188 1 18.75 40 100.179
189 1 18.75 18.75 113.036
190 1 40 18.75 113.036
191 1 40 40 113.036
192 1 18.75 40 113.036
193 1 18.75 18.75 113.036
194 1 40 18.75 113.036
195 1 40 40 113.036
196 1 18.75 40 113.036
197 1 18.75 18.75 125.893
198 1 40 18.75 125.893
199 1 40 40 125.893
200 1 18.75 40 125.893
201 1 18.75 18.75 125.893
202 1 40 18.75 125.893
203 1 40 40 125.893
204 1 18.75 40 125.893
205 1 18.75 18.75 139.821
206 1 40 18.75 139.821
207 1 40 40 139.821
208 1 18.75 40 139.821
209 1 18.75 18.75 139.821
210 1 40 18.75 139.821
211 1 40 40 139.821
212 1 18.75 40 139.821
213 1 18.75 18.75 153.214
214 1 40 18.75 153.214
215 1 40 40 153.214
216 1 18.75 40 153.214
217 1 18.75 18.75 153.214
218 1 40 18.75 153.214
219 1 40 40 153.214
220 1 18.75 40 153.214
221 1 18.75 18.75 240
222 1 40 18.75 240
223 1 40 40 240
224 1 18.75 40 240
ITEM: TIMESTEP
0
ITEM: NUMBER OF CUBES
28
ITEM: CUBES
1 1 1 2 3 4 5 6 7 8
2 1 9 10 11 12 13 14 15 16
3 1 17 18 19 20 21 22 23 24
4 1 25 26 27 28 29 30 31 32
5 1 33 34 35 36 37 38 39 40
6 1 41 42 43 44 45 46 47 48
7 1 49 50 51 52 53 54 55 56
8 1 57 58 59 60 61 62 63 64
9 1 65 66 67 68 69 70 71 72
10 1 73 74 75 76 77 78 79 80
11 1 81 82 83 84 85 86 87 88
12 1 89 90 91 92 93 94 95 96
13 1 97 98 99 100 101 102 103 104
14 1 105 106 107 108 109 110 111 112
15 1 113 114 115 116 117 118 119 120
16 1 121 122 123 124 125 126 127 128
17 1 129 130 131 132 133 134 135 136
18 1 137 138 139 140 141 142 143 144
19 1 145 146 147 148 149 150 151 152
20 1 153 154 155 156 157 158 159 160
21 1 161 162 163 164 165 166 167 168
22 1 169 170 171 172 173 174 175 176
23 1 177 178 179 180 181 182 183 184
24 1 185 186 187 188 189 190 191 192
25 1 193 194 195 196 197 198 199 200
26 1 201 202 203 204 205 206 207 208
27 1 209 210 211 212 213 214 215 216
28 1 217 218 219 220 221 222 223 224
