LAMMPS data file via write_data, version 29 Aug 2024, timestep = 200000, units = real

7050 atoms
2 atom types
4700 bonds
1 bond types
2350 angles
1 angle types

0 40 xlo xhi
0 40 ylo yhi
0 240 zlo zhi

Masses

1 12.0107
2 15.9994

Pair Coeffs # lj/cut/coul/long/omp

1 0.0536545 2.8
2 0.156989 3.05

Bond Coeffs # harmonic/omp

1 1028.27 1.16

Angle Coeffs # harmonic/omp

1 55.96 180

Atoms # full

6914 2305 2 -0.35 4.463343507308715 4.830000247838505 27.17166661676299 -2 1 0
6913 2305 1 0.7 3.4881626953493132 5.013115503617901 26.600945267967557 -2 1 0
6915 2305 2 -0.35 2.4820092486486547 5.243592267577521 26.09426015674129 -2 1 0
6933 2311 2 -0.35 14.937816725938347 13.016130086110433 53.491878204488344 -7 2 0
6931 2311 1 0.7 13.891157946321844 12.784441005270697 53.906531312092284 -7 2 0
6932 2311 2 -0.35 12.815968549037247 12.559124651763419 54.364778346535374 -7 2 0
1907 636 2 -0.35 1.7307570939878478 0.8192271617017073 74.38210604934197 0 1 0
3666 1222 2 -0.35 1.6078988836296184 8.3844399741685 77.1076565938578 1 0 0
1906 636 1 0.7 1.774911316498061 1.9107280398045194 74.01091736834566 0 1 0
1908 636 2 -0.35 1.831784741082637 3.0003698825290552 73.66491327691858 0 1 0
4066 1356 1 0.7 3.1283711835720984 6.167956448515401 73.88274142183066 1 0 0
4068 1356 2 -0.35 2.674212753351481 6.420184587973955 74.91330747234221 1 0 0
5950 1984 1 0.7 8.03921694241788 7.476586218412782 75.87072853512385 1 1 0
5952 1984 2 -0.35 7.90870563618884 6.915394810692266 74.8776542250877 1 1 0
4067 1356 2 -0.35 3.5647878836087776 5.8924862234151405 72.85421101951864 1 0 0
2132 711 2 -0.35 8.391971887534007 5.971655071696129 71.8638567104391 0 1 0
5951 1984 2 -0.35 8.10388206469791 8.13661396092697 76.8266636573381 1 1 0
3460 1154 1 0.7 0.37544048124861706 5.3193693699344 71.6515378896811 1 0 0
3461 1154 2 -0.35 0.4113562339461778 6.347644327895625 72.23567384150509 1 0 0
2133 711 2 -0.35 8.965910645965192 4.2755490661002025 73.35111137438548 0 1 0
2131 711 1 0.7 8.699092004027943 5.133865904894991 72.59907725567163 0 1 0
5403 1801 2 -0.35 5.193746172750286 1.4981551685383951 77.59058430364962 1 1 0
869 290 2 -0.35 10.143899240843258 2.175366833763416 76.42861459272112 -2 2 0
2424 808 2 -0.35 1.1302178774630116 1.117877171122082 70.39009475977204 1 1 0
694 232 1 0.7 0.7014650281876821 4.13069260901801 77.1182050216727 0 0 0
868 290 1 0.7 10.115595969555356 1.7648451100762153 75.35181267614045 -2 2 0
3462 1154 2 -0.35 0.22154580403035237 4.362721847928079 70.992449454792 1 0 0
4758 1586 2 -0.35 18.79869558786502 14.753441553886102 117.39303126052829 0 0 0
870 290 2 -0.35 9.966053922919379 1.303349143203151 74.30536991901884 -2 2 0
3854 1285 2 -0.35 16.774189832929554 7.452448808824112 69.64505211348632 0 0 0
3853 1285 1 0.7 16.216372887415677 7.434737887402592 70.66069393970679 0 0 0
3855 1285 2 -0.35 15.726890326114482 7.502664697067191 71.70964694118742 0 0 0
883 295 1 0.7 13.924467554990205 1.3872139880804197 75.02632324565127 0 0 0
885 295 2 -0.35 15.018318172224298 1.4722130855893218 74.63608991654385 0 0 0
597 199 2 -0.35 13.872930814636039 5.005371144144571 73.63287300007278 0 0 0
596 199 2 -0.35 15.25168563462806 6.392747400380161 74.88220796393242 0 0 0
595 199 1 0.7 14.517906851883026 5.715866992557851 74.30694125743315 0 0 0
884 295 2 -0.35 12.867004648719353 1.3583879631524294 75.54528069951304 0 0 0
3489 1163 2 -0.35 10.942528097307791 5.3879376771100365 77.90441026954127 1 1 0
6908 2303 2 -0.35 19.457665804838914 7.226682277812392 74.86366454124915 -7 5 0
6907 2303 1 0.7 19.517934439128517 6.645655770333248 75.89432545644559 -7 5 0
6962 2321 2 -0.35 7.112016001737245 11.137938035997752 73.19711420292727 0 1 0
6961 2321 1 0.7 7.317602547617252 11.612802467819407 72.15306237652491 0 1 0
6963 2321 2 -0.35 7.4938171784307395 12.191182801856622 71.14950701407525 0 1 0
467 156 2 -0.35 4.760493874101554 13.28374656516285 72.80045374765396 0 0 0
5835 1945 2 -0.35 0.3248405149372948 15.396448240035907 73.90694852063199 1 0 0
2707 903 1 0.7 16.81760551201176 10.369749180782415 112.44403274058901 0 1 0
4154 1385 2 -0.35 2.5743803093791264 11.50547193692253 75.07981353208315 1 0 0
4153 1385 1 0.7 3.3498255923656646 10.662229591715612 74.93429534678025 1 0 0
6019 2007 1 0.7 5.291248072622987 15.487832346903696 74.65572657079268 1 0 0
6020 2007 2 -0.35 6.421171551512684 15.661621218083239 74.43841659295639 1 0 0
4155 1385 2 -0.35 4.132441187644112 9.824935046477272 74.76370477030326 1 0 0
6021 2007 2 -0.35 4.136470082248244 15.502354828516618 74.77754071074939 1 0 0
468 156 2 -0.35 2.8829739083361887 14.070968618659448 71.67082539677745 0 0 0
466 156 1 0.7 3.8042968257622896 13.60686774933786 72.26226587972285 0 0 0
607 203 1 0.7 7.2274981220339285 0.5078792029362984 86.56039975900819 0 0 0
3969 1323 2 -0.35 8.999009446594648 15.485068203593693 119.28053775950829 1 0 0
1692 564 2 -0.35 0.02200892863772714 16.18491731967918 116.41305711580844 0 0 0
237 79 2 -0.35 3.8997166538967964 18.65718246429185 75.31675361565208 0 0 0
4214 1405 2 -0.35 1.0629416800133868 18.24408438555029 75.22410259644037 1 0 0
1758 586 2 -0.35 10.76581535019027 0.8405127343800498 116.70212560825901 0 1 0
236 79 2 -0.35 3.9152461573253428 17.961341720811642 73.14031141894765 0 0 0
235 79 1 0.7 3.8719171386855455 18.32154128389917 74.23560066749543 0 0 0
3830 1277 2 -0.35 11.415674999306809 12.548592881777052 73.86613256318374 0 0 0
3829 1277 1 0.7 12.306281311654201 12.632422776628314 74.626792323118 0 0 0
671 224 2 -0.35 19.281076937689797 11.21726887225979 77.07394439330335 0 0 0
3831 1277 2 -0.35 13.204525780032004 12.624764568773161 75.36564140728873 0 0 0
3664 1222 1 0.7 2.6124445015954088 7.882354382496592 77.4253197452163 1 0 0
1957 653 1 0.7 10.31434528870281 17.62460608596152 112.07604078266053 0 0 0
3665 1222 2 -0.35 3.5925005472684783 7.459986257961305 77.88140147662928 1 0 0
3788 1263 2 -0.35 3.512764782999471 0.8491600581209271 81.37694562186896 1 0 0
5982 1994 2 -0.35 6.485100853047134 8.549957899421203 79.41206617996403 1 1 0
5980 1994 1 0.7 6.292463805446891 9.38923355137292 78.63877282387442 1 1 0
3515 1172 2 -0.35 0.4599748185761843 4.53642913612637 80.49281088300772 1 0 0
4181 1394 2 -0.35 8.656653960444483 3.5300610794355918 79.32654754966786 1 0 0
4180 1394 1 0.7 8.118583792634073 4.333057541677706 78.6691812216128 1 0 0
177 59 2 -0.35 5.72964345701218 7.005442619775306 82.80136116732196 0 0 0
175 59 1 0.7 4.818684514768662 7.515112922433762 82.29925549129801 0 0 0
2441 814 2 -0.35 3.9573698162721604 4.30549849567262 78.47526234537342 0 1 0
2440 814 1 0.7 4.420892580559834 4.8216574999411455 79.40945834222775 0 1 0
176 59 2 -0.35 3.8574866969317396 7.951732944761268 81.88466499892438 0 0 0
2442 814 2 -0.35 4.812119859742077 5.444471692385809 80.32249645090548 0 1 0
4182 1394 2 -0.35 7.489243604744948 5.038767063552871 78.01449875664532 1 0 0
3861 1287 2 -0.35 2.5902995421176103 3.7055842785718607 83.24349089286447 1 0 0
5401 1801 1 0.7 4.197393001119039 1.096805763248949 78.05915815636163 1 1 0
744 248 2 -0.35 9.533592867188226 9.051627013341063 83.01501821905796 0 0 0
5402 1801 2 -0.35 3.3038757593092427 0.6298264764919964 78.62835893160877 1 1 0
742 248 1 0.7 9.861197392164943 8.017735819458174 82.62607986695222 0 0 0
3859 1287 1 0.7 1.4829855389332345 3.994882291377894 83.39109719778342 1 0 0
56 19 2 -0.35 7.250223554235973 3.2392379005979643 85.2628381052218 0 0 0
55 19 1 0.7 6.1687508208133615 3.496172061251106 84.98139735560116 0 0 0
57 19 2 -0.35 5.090429977769522 3.8239522608304464 84.71496900548458 0 0 0
4237 1413 1 0.7 19.33972669829091 17.746467194061953 102.90869678303977 0 0 0
1919 640 2 -0.35 6.1541491487923805 1.363933358374104 82.63522460824873 0 1 0
581 194 2 -0.35 2.7312713426448254 6.882324964984141 84.69790353552905 0 0 0
2316 772 2 -0.35 9.28102957973187 2.274355819210852 82.5511809208438 0 1 0
5544 1848 2 -0.35 0.6586458873511638 9.575435986176675 79.58247631266575 1 1 0
582 194 2 -0.35 4.607616466633456 6.743056661451722 86.0147721075666 0 0 0
580 194 1 0.7 3.709062732417585 6.793536429931231 85.31244241927031 0 0 0
3744 1248 2 -0.35 3.267317480817847 19.05095059177417 108.69571897573645 1 0 0
1918 640 1 0.7 6.5318425866313845 0.41382554342901806 82.11674184794991 0 1 0
6334 2112 1 0.7 5.257860089355763 8.038188230510574 119.23016855294537 0 1 0
4675 1559 1 0.7 17.140675634309343 0.45211113355225796 76.44370816751106 -2 -2 1
210 70 2 -0.35 14.661399578961323 3.3762122730401556 77.0573324162046 0 1 0
4677 1559 2 -0.35 16.868913436070955 1.351987277434748 77.08594726018657 -2 -2 1
1809 603 2 -0.35 10.299644768223338 8.629475714139447 79.75988414466903 0 1 0
743 248 2 -0.35 10.063318413940994 6.908643155585263 82.36463698024176 0 0 0
1807 603 1 0.7 9.809405151232761 9.687590128759815 79.86615305770533 0 1 0
3487 1163 1 0.7 11.625441506725249 5.0404345693974095 78.75687472159869 1 1 0
3488 1163 2 -0.35 12.417616742079227 4.678253598691089 79.52284487719827 1 1 0
208 70 1 0.7 15.537455356609584 4.066195292674663 77.42924301237849 0 1 0
3574 1192 1 0.7 13.994551480483153 7.936874060847635 78.21035758930897 0 0 0
3576 1192 2 -0.35 14.047826610793258 6.789432157201013 78.12008751886486 0 0 0
209 70 2 -0.35 16.396607947245823 4.709067244264958 77.81199229690043 0 1 0
1785 595 2 -0.35 12.933164636188444 2.758770017536998 82.25127533580654 0 1 0
4079 1360 2 -0.35 14.384551725549917 5.477219855709227 81.90932845794116 1 0 0
4080 1360 2 -0.35 12.880595039531427 7.164183764201423 81.34990323348691 1 0 0
4078 1360 1 0.7 13.642541555193615 6.3221242319212045 81.6347640020445 1 0 0
2315 772 2 -0.35 10.241396853505837 4.146646676866714 83.60489636192494 0 1 0
2314 772 1 0.7 9.792126685917701 3.2219526112149035 83.04804163069394 0 1 0
2560 854 1 0.7 17.961761511092767 5.509878059332119 81.05678667815815 0 1 0
2562 854 2 -0.35 17.144925514656745 6.3192858506992575 80.95429255214498 0 1 0
2097 699 2 -0.35 17.392764455671603 5.394056837524878 83.99095725124484 0 1 0
2561 854 2 -0.35 18.812053474517047 4.744108312505867 81.02418329397052 0 1 0
2070 690 2 -0.35 17.551588708430796 9.672229621466059 83.08061233296209 0 1 0
2452 818 1 0.7 16.598463579999066 1.8427787854375388 84.97515166642116 0 1 0
2068 690 1 0.7 16.693228540042117 8.906605173163452 83.14153652237765 0 1 0
2069 690 2 -0.35 15.770685448978519 8.172092363923209 83.16777077379608 0 1 0
1784 595 2 -0.35 14.02656078389482 1.7148036354354006 80.54381949333283 0 1 0
1783 595 1 0.7 13.480545663417562 2.2204909474447416 81.40482068431103 0 1 0
2454 818 2 -0.35 15.555488466997716 2.1010323088896667 84.58598164991102 0 1 0
2597 866 2 -0.35 16.966804180069385 0.8637529530714377 80.98605995390865 0 1 0
2596 866 1 0.7 17.961248340407675 1.2605482762653306 81.4172990567543 0 1 0
2453 818 2 -0.35 17.665051927751684 1.6006346943291638 85.36405469001694 0 1 0
4004 1335 2 -0.35 11.485151393765765 0.5421358453404047 79.59491273869278 1 0 0
3575 1192 2 -0.35 13.877717008410642 9.086234111824691 78.32341426755208 0 0 0
4994 1665 2 -0.35 17.62775131827651 8.631336823854223 78.87444702878685 -4 2 1
2598 866 2 -0.35 19.04305452532631 1.5695169902316863 81.7817775955975 0 1 0
2095 699 1 0.7 16.82561609647512 5.6294216440647205 84.96694879523521 0 1 0
659 220 2 -0.35 10.131406048940981 8.108776688706081 86.05572577184768 0 0 0
2000 667 2 -0.35 10.448326928444027 0.594756917305018 86.78301615122558 0 1 0
729 243 2 -0.35 1.0461007112098901 18.87067478183329 83.14377511337291 0 0 0
5981 1994 2 -0.35 6.0040217054098335 10.237012953241493 77.93316678948695 1 1 0
691 231 1 0.7 7.281754353721441 11.186870919812947 82.55380222757528 0 0 0
692 231 2 -0.35 6.8315992473358715 10.197675654219498 82.20808742724114 0 0 0
693 231 2 -0.35 7.871291952103469 12.13704975314063 82.89874516659687 0 0 0
3983 1328 2 -0.35 3.645993790791916 13.359786231680062 78.2723335767122 1 0 0
3982 1328 1 0.7 3.213882497987125 12.510713270075433 78.94264945926481 1 0 0
3984 1328 2 -0.35 2.8079388907419665 11.60694067726121 79.5767439494114 1 0 0
251 84 2 -0.35 2.054958674785672 10.700283436529748 82.4395956091935 0 0 0
5760 1920 2 -0.35 5.134870929872463 17.260650226139013 79.07666309961942 1 0 0
3602 1201 2 -0.35 7.063041786153961 14.6829474981491 78.88700999998657 1 0 0
252 84 2 -0.35 3.5966500591553086 10.697297506804366 84.1940683561207 0 0 0
250 84 1 0.7 2.804560008223153 10.700274670648058 83.32024056094565 0 0 0
3601 1201 1 0.7 7.962063668791765 14.377214845784652 79.55603268491946 1 0 0
5421 1807 2 -0.35 4.2401496361571915 14.88630126628455 81.65782709347368 1 1 0
5419 1807 1 0.7 4.782245402079641 13.88585345319526 81.45119460585512 1 1 0
5420 1807 2 -0.35 5.403896142160941 12.92915906844259 81.2192447645745 1 1 0
3550 1184 1 0.7 1.3623822556151985 15.607426604950096 81.31105901560817 1 0 0
3551 1184 2 -0.35 1.3561724064795682 15.152954866879691 80.2270840831664 1 0 0
3552 1184 2 -0.35 1.395704351687371 16.077835530209924 82.3644681451291 1 0 0
2395 799 1 0.7 1.0144617497812476 5.286164062897393 117.20012349510381 0 1 0
5758 1920 1 0.7 4.268877001140808 17.474825028257996 79.79662575030761 1 0 0
3603 1201 2 -0.35 8.882124738528734 14.111356485483233 80.17936940761524 1 0 0
5759 1920 2 -0.35 3.4505941054272475 17.703461971302726 80.58814307861742 1 0 0
5762 1921 2 -0.35 8.385929169997366 16.02178566783386 82.57641361758445 1 1 0
7031 2344 2 -0.35 4.612556020320159 13.420421928462709 84.54144788071682 1 2 1
5761 1921 1 0.7 9.54155328798565 15.97474036927749 82.57378027657774 1 1 0
6336 2112 2 -0.35 5.83090688542357 9.00564086564403 119.0666303498689 0 1 0
4028 1343 2 -0.35 2.3348096377735184 16.903522739039882 85.84503899828087 1 0 0
1808 603 2 -0.35 9.230361289606284 10.700347058152255 79.98580567387104 0 1 0
4027 1343 1 0.7 3.049979486598946 17.22241528946529 84.98735212371824 1 0 0
4029 1343 2 -0.35 3.6923617959497457 17.573963112670405 84.09838781749269 1 0 0
4220 1407 2 -0.35 0.2022105056533361 8.552393703430782 106.04529077705038 1 0 0
3924 1308 2 -0.35 7.857826965652763 18.70597367609273 78.44279203375675 1 0 0
3919 1307 1 0.7 15.01345648760328 0.0056865674584276535 104.51426903463505 0 0 0
4194 1398 2 -0.35 1.5972025928914624 19.014118019499897 78.05411605433807 1 0 0
1959 653 2 -0.35 10.976744296203893 18.253848664817397 111.33272404496913 0 0 0
5718 1906 2 -0.35 17.66941366653334 17.432541032545707 78.98885672858101 1 0 0
672 224 2 -0.35 18.5449786944069 11.608994229245562 79.24642628134673 0 0 0
670 224 1 0.7 18.960409914944304 11.371004304705952 78.18716085664535 0 0 0
3530 1177 2 -0.35 15.621275100170141 14.242423383481457 80.01860934782286 1 0 0
5716 1906 1 0.7 17.12696763329985 18.455793398446716 78.97166911704804 1 0 0
6998 2333 2 -0.35 13.362169206631314 11.216995258351993 80.69054795578367 -1 1 1
6997 2333 1 0.7 13.560480204966732 11.027226884747407 81.80555228946605 -1 1 1
3529 1177 1 0.7 16.169615380524505 14.229345390157116 79.02256475806999 1 0 0
3531 1177 2 -0.35 16.609347793894507 14.136762868495996 77.95408056846473 1 0 0
2054 685 2 -0.35 16.329399368147357 18.07402233412454 84.22001083035339 0 0 0
6999 2333 2 -0.35 13.714206871512493 10.94239039550147 82.95917942003638 -1 1 1
3719 1240 2 -0.35 16.162800553034707 13.157331192867376 83.56402742600194 1 0 0
5763 1921 2 -0.35 10.713743524925093 15.963355614601554 82.59953960656642 1 1 0
4993 1665 1 0.7 16.780709153853177 9.012022384643522 79.57794609587391 -4 2 1
750 250 2 -0.35 14.974982508223214 15.974462112603899 82.50242853895442 0 0 0
748 250 1 0.7 14.75376073426947 16.676631092821154 81.6155157905453 0 0 0
749 250 2 -0.35 14.519335881064155 17.420457067550092 80.76713987940047 0 0 0
480 160 2 -0.35 12.57242193983682 14.52734267058476 80.32133108733072 0 0 0
479 160 2 -0.35 11.7540578049707 13.625480695699556 78.33387719055489 0 0 0
478 160 1 0.7 12.124830737920885 14.08118129148667 79.32873621129104 0 0 0
255 85 2 -0.35 0.1197612788894286 9.466952016515503 84.22580265524411 0 0 0
3608 1203 2 -0.35 19.219782928209828 14.418816948456952 82.1525126844846 0 0 0
1958 653 2 -0.35 9.671419313473999 16.926250166517384 112.71881153652915 0 0 0
2053 685 1 0.7 17.499124564853233 18.089248807316135 84.23661528540471 0 0 0
2055 685 2 -0.35 18.652009860517214 18.128457533520983 84.26614808315169 0 0 0
682 228 1 0.7 11.026570808270272 18.115091979158592 80.11511515530476 0 0 0
3718 1240 1 0.7 15.332147296781214 13.642833250792403 84.23817814341797 1 0 0
683 228 2 -0.35 10.798677651237734 17.210450004700512 79.43374244512393 0 0 0
4995 1665 2 -0.35 15.932763336151286 9.381990428265242 80.29080217261695 -4 2 1
4019 1340 2 -0.35 12.515711091789317 18.164365320917742 83.36366304976 1 0 0
4018 1340 1 0.7 13.009498924412899 18.763512510789745 84.23474035769163 1 0 0
3720 1240 2 -0.35 14.545785252699787 14.094803246263156 85.01557365632532 1 0 0
3972 1324 2 -0.35 17.559492911362568 14.890823002957337 85.49831765893498 1 0 0
684 228 2 -0.35 11.397923816253122 18.950849159219594 80.76012487914569 0 0 0
3 1 2 -0.35 19.001088275309012 18.63080037510745 81.43624036595632 0 0 0
5382 1794 2 -0.35 0.144232420965414 7.130065852928937 89.83540550715529 1 1 0
2364 788 2 -0.35 6.398568387399592 8.11535850018521 87.81830512728354 0 1 0
2363 788 2 -0.35 7.502773288965036 6.266365848326387 86.94079054481509 0 1 0
2362 788 1 0.7 6.9090274700671195 7.142898309803894 87.38796116593608 0 1 0
3678 1226 2 -0.35 0.23494370618624866 10.216981301728477 90.60253573877942 1 0 0
790 264 1 0.7 3.3326622836861453 0.7860363172947384 88.11286360910904 0 0 0
3804 1268 2 -0.35 2.325938316104436 5.342202809180947 87.78784189944473 1 0 0
3802 1268 1 0.7 3.0622126408478407 6.036791936794166 88.37632767180047 1 0 0
3803 1268 2 -0.35 3.8505987902305385 6.748245666614874 88.78233702077729 1 0 0
3470 1157 2 -0.35 1.6815778126919754 2.1790111167154316 86.11982369064074 1 0 0
3955 1319 1 0.7 5.824627906118548 0.8015100743197416 92.86162273999476 1 0 0
2196 732 2 -0.35 2.578322088723419 4.411608670733895 90.84876731065019 0 1 0
840 280 2 -0.35 5.125538980970061 4.30368458062902 88.94054347169647 0 0 0
838 280 1 0.7 5.182396508457662 3.4586974620089705 89.74041618015404 0 0 0
839 280 2 -0.35 5.2611652514928835 2.623796916186926 90.54149759524103 0 0 0
2194 732 1 0.7 2.4398014540846584 5.1959800912770815 91.70667889842794 0 1 0
5445 1815 2 -0.35 7.612298937333475 5.0559217368251215 90.4170272369262 1 1 0
5670 1890 2 -0.35 7.370530917690603 8.411509374598152 90.45747409152605 1 1 0
5443 1815 1 0.7 8.344037892197228 4.572549949828517 91.18023943292047 1 1 0
5668 1890 1 0.7 8.25577623885584 8.122054532777565 91.1120701013999 1 1 0
5669 1890 2 -0.35 9.12888080603624 7.79245101887017 91.7967753744214 1 1 0
791 264 2 -0.35 3.2468186115500375 1.801525722048686 88.68569979794644 0 0 0
5298 1766 2 -0.35 1.098746979937797 8.65299962998035 87.47337262512264 1 0 0
2195 732 2 -0.35 2.2487357191894763 5.981972110511751 92.55104660941423 0 1 0
5247 1749 2 -0.35 7.994554423714179 0.20220579667467112 90.58940376886434 1 1 0
3921 1307 2 -0.35 14.39953651619021 0.03018008217756329 105.49437497207083 0 0 0
4234 1412 1 0.7 16.496523875905748 17.04145395186673 117.60223139770059 0 0 0
84 28 2 -0.35 0.9625344699814911 2.438097388390808 93.71039605782204 0 1 0
5444 1815 2 -0.35 9.092489121839037 4.037426292125224 91.89168012233706 1 1 0
2096 699 2 -0.35 16.199694124613856 5.900619462208509 85.91272786542433 0 1 0
5416 1806 1 0.7 12.061387211830795 0.9648631074055031 91.37585151115515 1 1 0
3825 1275 2 -0.35 16.52313226046538 2.862822403341443 88.24923663265692 0 0 0
2489 830 2 -0.35 12.230786069719992 5.309177247672693 86.73698664145395 0 1 0
2488 830 1 0.7 11.86687011026413 4.262835164875776 86.37311256159057 0 1 0
2490 830 2 -0.35 11.351552753141675 3.240391830385545 86.02982894042906 0 1 0
5672 1891 2 -0.35 12.524881231679508 6.948077084857381 89.96551021871358 0 1 0
5671 1891 1 0.7 11.633389475234445 6.218562946099474 89.8472774192809 0 1 0
660 220 2 -0.35 10.130879560631643 7.918389959375622 88.36342426904113 0 0 0
658 220 1 0.7 10.130598603309366 8.072879171726427 87.20450559947245 0 0 0
3823 1275 1 0.7 17.11895651914083 3.869589570702494 88.45822846798836 0 0 0
3824 1275 2 -0.35 17.80711414680945 4.7992852311191925 88.66634058975181 0 0 0
1996 666 1 0.7 13.611569809252128 9.190659869118365 92.35143205162542 0 1 0
5673 1891 2 -0.35 10.736755679395527 5.487184272354972 89.6964739711733 0 1 0
1998 666 2 -0.35 14.259440026561139 9.335599210367748 91.38235274513839 0 1 0
5418 1806 2 -0.35 12.13369962317648 2.115029298363904 91.33730027483567 1 1 0
1816 606 1 0.7 14.845446269748798 4.525944386571325 91.30927812000436 0 1 0
1818 606 2 -0.35 15.988194041663197 4.283819074410234 91.20392997028398 0 1 0
2390 797 2 -0.35 14.90096572468941 5.801705055191889 88.57356612399403 0 1 0
2389 797 1 0.7 14.713374732631879 6.836427064813693 88.11737604461331 0 1 0
3540 1180 2 -0.35 19.314333679350646 7.300926581312447 90.17257347685785 0 0 0
3538 1180 1 0.7 19.136127665094698 6.57882566908825 91.05727929073205 0 0 0
2391 797 2 -0.35 14.463828412158776 7.9206312672095365 87.81956985179959 0 1 0
1817 606 2 -0.35 13.750640647243934 4.871787480206609 91.4412524785574 0 1 0
2168 723 2 -0.35 17.298924108348267 9.734409763479468 86.239804741151 0 1 0
2397 799 2 -0.35 0.7063119682767373 5.425223865175072 116.07507446791602 0 1 0
903 301 2 -0.35 17.590833629580775 3.281110664319229 94.04293335764267 0 0 0
901 301 1 0.7 18.1586250096465 2.8232640600890875 93.17456118231011 0 0 0
2151 717 2 -0.35 14.278149729543603 0.8617661755905999 89.53469453404583 0 1 0
5296 1766 1 0.7 1.2238345007764977 9.770980686107823 87.1327230177024 1 0 0
5985 1995 2 -0.35 5.392582804895504 7.720677433641882 92.77763081152487 1 1 0
4046 1349 2 -0.35 4.233969797101609 9.969973797416767 88.18285601425383 1 0 0
5297 1766 2 -0.35 1.378170484769847 10.878626737925753 86.8526252587405 1 0 0
5983 1995 1 0.7 4.53881341749117 8.3891881655293 92.39309709779344 1 1 0
5984 1995 2 -0.35 3.609916963261193 9.049181728713666 92.10700520672748 1 1 0
708 236 2 -0.35 7.323175166859924 12.224536788758646 86.6295682199808 0 0 0
7032 2344 2 -0.35 4.274331022938278 13.292757447327208 86.8400746052427 1 2 1
7030 2344 1 0.7 4.47007469853308 13.344240488202939 85.7005486603935 1 2 1
706 236 1 0.7 7.456157816284779 11.227506082058943 86.08159986863437 0 0 0
4047 1349 2 -0.35 5.877964797319681 11.057312443745817 89.32544270178988 1 0 0
4045 1349 1 0.7 5.096282115631122 10.485324013274386 88.75123254501217 1 0 0
2223 741 2 -0.35 5.382011629448441 12.380157327168915 92.35577777687557 0 1 0
2222 741 2 -0.35 7.466035535424033 12.877961504385368 91.4592915616094 0 1 0
2221 741 1 0.7 6.422506858097266 12.655608781355747 91.9136409630988 0 1 0
4240 1414 1 0.7 3.987949722459485 15.238421703147157 89.6743816264191 1 0 0
4242 1414 2 -0.35 4.424098089798697 14.306490690111671 90.20383563494815 1 0 0
4256 1419 2 -0.35 6.929486190140914 14.822973414821071 88.91227924968713 0 0 0
4255 1419 1 0.7 6.642755885608417 15.396591992716363 87.96049911879908 0 0 0
4241 1414 2 -0.35 3.5048145415863408 16.18952346542033 89.22305570725553 1 0 0
707 236 2 -0.35 7.422864429993518 10.248114791568527 85.43572797006865 0 0 0
4257 1419 2 -0.35 6.302861698704857 15.880486705953816 86.96441278031197 0 0 0
3647 1216 2 -0.35 1.103354033164193 13.907627889402018 87.45389081364185 1 0 0
3646 1216 1 0.7 0.4876135226631542 13.618437558026816 86.50781540631826 1 0 0
160 54 1 0.7 8.0549709171487 16.534740472084792 92.17693290433844 0 0 0
161 54 2 -0.35 7.1413867065324235 15.899206869726799 92.501493147739 0 0 0
163 55 1 0.7 1.6007538396784173 13.574279622482015 91.38822802725537 0 0 0
6030 2010 2 -0.35 3.1312982691336275 15.238965009852683 93.98698335629905 1 1 0
5267 1756 2 -0.35 1.6292809109949165 18.536110951134642 91.71431383820064 1 0 0
3698 1233 2 -0.35 0.24851475193180875 17.668216097577698 88.40729881187598 1 0 0
162 54 2 -0.35 8.944214652554423 17.168075676439965 91.82601214887421 0 0 0
158 53 2 -0.35 9.619535057298755 11.828816370278494 88.39133696964673 0 0 0
165 55 2 -0.35 1.9531428512227027 12.477059039128726 91.52799411090467 0 0 0
5266 1756 1 0.7 2.0393265228885142 19.109335219496206 90.78732635682144 1 0 0
846 282 2 -0.35 9.554620865636219 15.12809858837805 85.78018259335526 0 0 0
844 282 1 0.7 9.6519125271764 16.29499352241501 85.835993671816 0 0 0
410 137 2 -0.35 10.141843476639714 14.10772392339063 92.42089284466915 0 0 0
2594 865 2 -0.35 7.1929821269215255 18.04684873792119 88.92016428723305 0 0 0
296 99 2 -0.35 12.271847786502175 13.536481993782072 87.06961924732119 0 0 0
771 257 2 -0.35 18.50016924447525 11.02503557331153 88.58678225486273 0 0 0
159 53 2 -0.35 10.027050173575693 13.919672686047397 89.3104028893483 0 0 0
157 53 1 0.7 9.79564992402287 12.868115347235417 88.88878413098602 0 0 0
144 48 2 -0.35 18.1043037783373 9.701792973553781 91.9826517106052 0 0 0
2167 723 1 0.7 16.42429426070772 10.435102336144453 86.52722486918378 0 1 0
2169 723 2 -0.35 15.492343024006864 11.059664144676383 86.72650959485928 0 1 0
845 282 2 -0.35 9.699075221961971 17.42387856026109 85.91909579840593 0 0 0
295 99 1 0.7 11.94590147966251 12.874767246720946 86.19125845655233 0 0 0
142 48 1 0.7 18.9322695741668 10.491502375904231 91.8600839359976 0 0 0
409 137 1 0.7 10.54182948940669 13.04613442317363 92.17257316218084 0 0 0
411 137 2 -0.35 10.94054426017468 11.978315346618619 91.93731981537543 0 0 0
3970 1324 1 0.7 18.068099970773037 13.863082010745938 85.69940459993235 1 0 0
297 99 2 -0.35 11.58900307613746 12.3273615024213 85.210866427612 0 0 0
882 294 2 -0.35 13.65215747159209 12.587048567412253 91.66296904850341 0 0 0
881 294 2 -0.35 14.34407848522449 11.976544595766255 93.78469437623792 0 0 0
1992 664 2 -0.35 15.24779499489025 16.560866007720794 86.98960743156051 0 1 0
1990 664 1 0.7 14.234534733446715 16.957980069699122 87.31625314422898 0 1 0
1991 664 2 -0.35 13.139353579027926 17.231362324756404 87.65037809538956 0 1 0
880 294 1 0.7 13.98864317960655 12.227233944247864 92.69693523443662 0 0 0
2588 863 2 -0.35 16.705068536011595 12.5327478888111 90.43992841867318 0 1 0
2587 863 1 0.7 16.598332052045272 13.429967957724013 89.69179447587966 0 1 0
378 126 2 -0.35 10.383882782417746 17.046225183457455 89.08129388221052 0 0 0
376 126 1 0.7 11.18416919803299 16.858826209885308 89.89742708033255 0 0 0
2589 863 2 -0.35 16.587495234616313 14.313785183426742 88.93837002865692 0 1 0
377 126 2 -0.35 12.013892682599048 16.75501293180448 90.6915289089827 0 0 0
3567 1189 2 -0.35 16.743081097458795 16.992577466477226 92.0613190150404 1 0 0
36 12 2 -0.35 12.748745413160032 14.642590999573367 93.69239840437233 0 0 0
34 12 1 0.7 13.062795462053076 15.750784938173332 93.59631843092798 0 0 0
1055 352 2 -0.35 12.575395654781481 11.112896227061327 117.0832202800522 0 0 0
3971 1324 2 -0.35 18.469792150242004 12.811355066684323 85.9887466700121 1 0 0
156 52 2 -0.35 18.898831728924787 14.594403203441386 91.23524280224966 0 0 0
3565 1189 1 0.7 16.261532427501688 17.947511991001516 91.63870654268325 1 0 0
4010 1337 2 -0.35 0.8766331741279437 14.440909490462321 114.28152852176294 1 0 0
3566 1189 2 -0.35 15.863448956573482 18.9014290616769 91.1026541290172 1 0 0
3477 1159 2 -0.35 0.04873434781625934 6.610641686182195 110.67315958891942 1 0 0
5388 1796 2 -0.35 18.339551639069136 3.199557130893893 116.67835103109674 0 1 0
2293 765 1 0.7 1.9506920022755456 9.054640948270993 95.5112021274922 0 1 0
528 176 2 -0.35 0.8938644248107086 0.8383667473133484 100.73618955856867 0 0 0
3957 1319 2 -0.35 6.38945860538329 1.7715495439626006 93.0601353625359 1 0 0
2295 765 2 -0.35 2.9127206619040775 8.700681797516584 94.93420089501755 0 1 0
5474 1825 2 -0.35 4.356311597707601 0.995361685334109 98.80295446571681 1 1 0
5473 1825 1 0.7 4.029171315996367 0.29551865582645215 97.94037483807507 1 1 0
1905 635 2 -0.35 8.14574595197906 7.697474781054465 95.04576573231662 0 0 0
2292 764 2 -0.35 6.024964649452418 6.632460629072536 97.78015537503906 0 1 0
1903 635 1 0.7 7.928297871861601 8.740531295613167 94.56160955060905 0 0 0
602 201 2 -0.35 9.37391738543605 3.399898698729942 96.3496665806769 0 0 0
601 201 1 0.7 8.272538713227311 3.113531549064618 96.12377761980052 0 0 0
603 201 2 -0.35 7.148951382096302 2.8238331032427815 96.003131211363 0 0 0
2234 745 2 -0.35 1.0898341676433052 8.178949875283305 100.56614113183909 0 1 0
2233 745 1 0.7 1.8834977292980382 7.735283545228603 99.85346954404314 0 1 0
2291 764 2 -0.35 4.098249962763462 5.497307568594349 97.01294683788308 0 1 0
2290 764 1 0.7 5.012993256123814 6.0869063361201885 97.45523866256416 0 1 0
2566 856 1 0.7 3.4248707250590655 3.6575422172555685 99.165964392141 0 1 0
1095 365 2 -0.35 16.946210379232415 11.932629011291926 117.23637922443768 0 0 0
2568 856 2 -0.35 2.3154773164028235 3.3631816244644064 99.00299865621052 0 1 0
2235 745 2 -0.35 2.607234875280087 7.29558144923523 99.03639210623403 0 1 0
233 78 2 -0.35 6.69324201565183 5.892948042649717 100.48120304188548 0 0 0
2567 856 2 -0.35 4.519891648946899 3.954295778970302 99.40352114158166 0 1 0
232 78 1 0.7 7.286565790496119 5.12547519462268 99.80040135206113 0 0 0
234 78 2 -0.35 7.769456645729958 4.302569643471525 99.13528201179413 0 0 0
861 287 2 -0.35 3.8105113454101303 5.605329024889772 102.15470953954483 0 0 0
4041 1347 2 -0.35 4.92304773937885 8.799558740814941 101.3924043159198 0 0 0
4039 1347 1 0.7 5.941426773977948 8.851680153732065 100.88258556375001 0 0 0
2467 823 1 0.7 7.771074563812514 1.9333798023269266 102.81741240103077 0 1 0
4263 1421 2 -0.35 19.51137159512741 7.362992923787985 119.22009447043106 0 0 0
453 151 2 -0.35 0.37106995733750703 15.692688803148908 106.50250381390364 0 0 0
556 186 1 0.7 4.353636530351432 0.8986534093426558 102.19410396392708 0 0 0
1473 491 2 -0.35 11.020601015470033 1.1489494723785758 98.6502101269289 0 0 0
1904 635 2 -0.35 7.714689676905925 9.78984047834146 94.08075406823399 0 0 0
4040 1347 2 -0.35 6.959320091055339 8.873375767702234 100.26360865448336 0 0 0
2468 823 2 -0.35 7.428533044744681 2.9790247045941594 102.42908300885904 0 1 0
557 186 2 -0.35 4.525630004138563 1.9837849880559857 101.81787658374719 0 0 0