LAMMPS data file via write_data, version 29 Aug 2024, timestep = 0, units = real

7050 atoms
2 atom types
4700 bonds
1 bond types
2350 angles
1 angle types

0 40 xlo xhi
0 40 ylo yhi
0 240 zlo zhi

Masses

1 12.0107
2 15.9994

Pair Coeffs # lj/cut/coul/long/omp

1 0.0536545 2.8
2 0.156989 3.05

Bond Coeffs # harmonic/omp

1 1028.27 1.16

Angle Coeffs # harmonic/omp

1 55.96 180

Atoms # full

6900 2300 2 -0.35 13.365241428893228 17.334235750820213 9.326164970011172 0 0 0
6899 2300 2 -0.35 11.504756223212068 16.07396092985839 9.903180794178862 0 0 0
6898 2300 1 0.7 12.435002020132487 16.704067048029366 9.61462358367292 0 0 0
6917 2306 2 -0.35 17.72182909668039 6.395154673997552 32.66425335201931 0 0 0
6897 2299 2 -0.35 17.192850576164272 9.34143766413779 31.528988185885726 0 0 0
6896 2299 2 -0.35 15.1993164364314 8.288913354539908 32.079739345653266 0 0 0
6895 2299 1 0.7 16.199344746248297 8.809957012830445 31.806286454891033 0 0 0
6909 2303 2 -0.35 10.383418387375754 19.827207881769034 37.877259049822776 0 0 0
2465 822 2 -0.35 0.2895228191783326 1.426377120925055 84.65401087049082 0 1 0
4150 1384 1 0.7 0.6578121298241244 0.008436471699652011 104.80372478033162 1 0 0
6919 2307 1 0.7 7.599239165599442 0.9877702375771742 46.68751309504519 0 0 0
6920 2307 2 -0.35 7.78530188656936 1.7396156898833133 47.55140890320207 0 0 0
6921 2307 2 -0.35 7.402405221541696 0.2329099237438216 45.8284669122499 0 0 0
6903 2301 2 -0.35 12.060225632017383 1.7490985753991282 43.94947282686241 0 0 0
6902 2301 2 -0.35 10.227990595827368 1.6528463701203435 45.36975592751379 0 0 0
6901 2301 1 0.7 11.144273384373712 1.7009414097415196 44.659460979326106 0 0 0
6915 2305 2 -0.35 1.2782870480075923 16.106233093934843 48.70748855708419 0 0 0
6914 2305 2 -0.35 1.0721251865333157 16.719463869612866 46.47951372746249 0 0 0
6913 2305 1 0.7 1.1751065172798392 16.412830100366072 47.593506873279075 0 0 0
37 13 1 0.7 4.606349250526133 5.349734379989374 81.55832358852997 0 0 0
38 13 2 -0.35 3.993354109499713 4.39388239773659 81.31867627291838 0 0 0
39 13 2 -0.35 5.214907484302932 6.311542103760212 81.78564378010338 0 0 0
130 44 1 0.7 3.602532718719737 1.2752302573430205 82.46545257169947 0 0 0
132 44 2 -0.35 4.731784176072553 1.5217475578255342 82.57178394178003 0 0 0
870 290 2 -0.35 7.858550112763416 8.682670940907864 82.0729334131537 0 0 0
869 290 2 -0.35 7.296217819179514 7.381941651336332 83.91133649591517 0 0 0
868 290 1 0.7 7.573446683642943 8.029618685280157 82.98843343436363 0 0 0
748 250 1 0.7 1.2763260149958464 3.9255643902062554 83.39937718745398 0 0 0
749 250 2 -0.35 2.3478311785247166 3.6955993425925073 83.78121126478295 0 0 0
863 288 2 -0.35 5.477994734161049 0.6855700732750561 116.69486835937526 0 0 0
6906 2302 2 -0.35 4.474854870215731 9.291383947309077 82.87876563941329 0 0 0
6905 2302 2 -0.35 2.6095524182580982 7.929291593249472 82.63528996403916 0 0 0
6904 2302 1 0.7 3.5410306068284574 8.610853756439042 82.76457829289306 0 0 0
71 24 2 -0.35 5.4424260009230165 9.108405124457716 87.49242388818831 0 0 0
229 77 1 0.7 2.1546790878052504 7.299868615015426 87.83675598017008 0 0 0
230 77 2 -0.35 1.9133706673122393 6.287011855419059 88.34960267484577 0 0 0
231 77 2 -0.35 2.4009859018905506 8.30420512579145 87.3094714338711 0 0 0
253 85 1 0.7 8.10985699338623 0.3879145863929682 86.97587709747724 0 0 0
254 85 2 -0.35 8.317834465648417 1.2776261987438349 87.69115981017882 0 0 0
328 110 1 0.7 8.312355468752074 9.013890069250799 86.2056323876516 0 0 0
329 110 2 -0.35 8.567520874286041 8.17482024370835 86.96517120225396 0 0 0
330 110 2 -0.35 8.059964783697488 9.848935775878527 85.4409712617955 0 0 0
385 129 1 0.7 2.3112454350439453 3.944614370857589 86.65655181581306 0 0 0
386 129 2 -0.35 1.201553152578659 3.611577655350629 86.72575327314276 0 0 0
387 129 2 -0.35 3.4203065082257766 4.280280202952209 86.59165099771688 0 0 0
466 156 1 0.7 6.12578116323917 3.175777738217366 84.58772653180635 0 0 0
467 156 2 -0.35 6.5196259604327675 2.171717171483656 85.01747309577668 0 0 0
468 156 2 -0.35 5.725503612767546 4.175512537268609 84.15468174604345 0 0 0
628 210 1 0.7 4.308163458036356 0.7437472416412927 86.49235943647132 0 0 0
630 210 2 -0.35 3.5307557069558233 1.1884386347652138 85.75239304196208 0 0 0
643 215 1 0.7 5.13800691867307 6.63001485767327 85.82037677545541 0 0 0
644 215 2 -0.35 5.909988727882605 6.195277556164248 86.5700314963973 0 0 0
645 215 2 -0.35 4.357300293358897 7.064354115039372 85.07994281753602 0 0 0
721 241 1 0.7 8.522954753893156 4.977155841764132 86.78275721342337 0 0 0
722 241 2 -0.35 8.554858896033723 4.738775414305831 85.64679236120777 0 0 0
723 241 2 -0.35 8.497993508868873 5.2140554314476875 87.91934208093686 0 0 0
131 44 2 -0.35 2.474799134495853 1.0230533052437591 82.35810716578602 0 0 0
239 80 2 -0.35 9.69443530190233 1.461016428643862 84.71436836402489 0 0 0
238 80 1 0.7 10.185714920417281 1.1520355788656382 83.70909359506553 0 0 0
469 157 1 0.7 14.750886231152696 0.1968668857180035 117.25416629441706 0 0 0
3719 1240 2 -0.35 1.1909579857546053 6.437559563237823 85.07512038774668 1 0 0
629 210 2 -0.35 5.088987896656028 0.31518222869147716 87.23688042382861 0 0 0
3699 1233 2 -0.35 0.5534283054876986 0.760340793901491 87.72166264377923 1 0 0
103 35 1 0.7 13.51307920353657 2.501517977045328 82.80989874371454 0 0 0
104 35 2 -0.35 12.89113879428718 3.4524915742053226 82.57273083878636 0 0 0
105 35 2 -0.35 14.121450921954306 1.5428155883821584 83.05164736416121 0 0 0
664 222 1 0.7 15.68614519853731 9.90017909269952 84.343588140079 0 0 0
739 247 1 0.7 14.806879958420412 6.73512843222935 82.11508532154696 0 0 0
740 247 2 -0.35 13.766813294752927 6.902309620165441 82.60277163458629 0 0 0
741 247 2 -0.35 15.847818190152871 6.569193080722481 81.62847560971474 0 0 0
772 258 1 0.7 17.107866641699385 3.6572784655606205 81.8329676596703 0 0 0
773 258 2 -0.35 16.044180754746993 3.3957691039095383 81.44925708084496 0 0 0
1355 452 2 -0.35 5.505112194061076 0.7016874484262532 119.9351480726584 0 0 0
816 272 2 -0.35 15.513606613832463 4.764897823387479 84.1895043461639 0 0 0
97 33 1 0.7 16.228970811922434 2.0464293497811714 86.89956216825593 0 0 0
98 33 2 -0.35 17.108722653606034 1.4172212798479442 87.32012878775511 0 0 0
99 33 2 -0.35 15.354208261748665 2.6886225602463063 86.48844151075156 0 0 0
199 67 1 0.7 11.683605704801188 2.9242924352815254 86.3793515026085 0 0 0
200 67 2 -0.35 12.417652512308186 2.3778694759095655 85.66584728455601 0 0 0
201 67 2 -0.35 10.944351137213271 3.4712250281831163 87.08689509700021 0 0 0
211 71 1 0.7 11.591064597527344 6.2228033775189395 84.62059637727627 0 0 0
212 71 2 -0.35 12.358874595023625 5.446538708802768 85.01561933855008 0 0 0
213 71 2 -0.35 10.815117441332317 6.996468855720865 84.23694170996183 0 0 0
251 84 2 -0.35 18.280355351958832 4.029457953085906 85.82567242417724 0 0 0
257 86 2 -0.35 11.210690861735463 6.5790962549833605 87.63694565925084 0 0 0
271 91 1 0.7 11.922022976256672 9.828162856201846 84.7368487545028 0 0 0
460 154 1 0.7 13.876385040041628 7.786852390456313 87.25626372815223 0 0 0
462 154 2 -0.35 13.729182764355743 8.03454684645718 86.13139625899814 0 0 0
597 199 2 -0.35 17.171435916765194 1.2450676760513835 83.78839889020756 0 0 0
665 222 2 -0.35 15.95628528433059 8.887657978430997 83.84437463777864 0 0 0
736 246 1 0.7 17.762612874360503 8.157819116064394 86.99971809322831 0 0 0
737 246 2 -0.35 16.706144403659426 8.62926131167838 87.10262589983395 0 0 0
779 260 2 -0.35 17.866876322002827 5.280068090158906 88.64015033871539 0 0 0
814 272 1 0.7 15.637902705493897 5.256265956757155 85.23368574817454 0 0 0
815 272 2 -0.35 15.759642762803503 5.759515118447474 86.27341396927955 0 0 0
272 91 2 -0.35 11.211228111975277 9.728461000635598 85.65021395766524 0 0 0
1980 660 2 -0.35 6.388619572353605 19.965337650090046 116.2526259438226 0 0 0
3830 1277 2 -0.35 18.160639741319503 6.6692861345066206 84.07563862583693 0 0 0
848 283 2 -0.35 8.924825145545874 11.900017898398493 81.06114908965398 0 0 0
217 73 1 0.7 7.794404240601894 18.71989094282941 83.6089314186134 0 0 0
218 73 2 -0.35 7.538871241649569 18.999531795019468 82.51228105780241 0 0 0
219 73 2 -0.35 8.032832740044636 18.43765894204733 84.71006447175255 0 0 0
235 79 1 0.7 5.986294394884767 11.493174604846164 84.26055523533418 0 0 0
236 79 2 -0.35 5.297692405672604 11.190440657871104 85.14493963780578 0 0 0
237 79 2 -0.35 6.667676749724745 11.79826252246514 83.37173522887994 0 0 0
3624 1208 2 -0.35 2.312495464836951 15.796705237462868 84.83998884392273 1 0 0
682 228 1 0.7 5.964761569213033 14.895315375303555 83.55230722078045 0 0 0
683 228 2 -0.35 4.954615349063881 14.353345826874918 83.37170681930901 0 0 0
684 228 2 -0.35 6.979877549630475 15.427376629687663 83.74151809356722 0 0 0
691 231 1 0.7 4.614232658284782 18.295664923482903 82.04525998400716 0 0 0
692 231 2 -0.35 5.020342014834285 17.221807912822698 81.87587065525003 0 0 0
693 231 2 -0.35 4.202672589987483 19.36786717218313 82.2131152111469 0 0 0
744 248 2 -0.35 9.335263782015454 15.821288415698758 86.14212022689722 0 0 0
70 24 1 0.7 4.747885397289711 9.971298607991985 87.84211391001789 0 0 0
208 70 1 0.7 4.7708460872080165 14.715680826874944 86.9045132575676 0 0 0
209 70 2 -0.35 3.961871146192988 15.375548230596564 87.41077071987667 0 0 0
210 70 2 -0.35 5.587283175155109 14.067293359620578 86.39368522364484 0 0 0
307 103 1 0.7 5.062825484656217 18.18112816938238 86.00477313080722 0 0 0
308 103 2 -0.35 5.075751350048178 17.545401352087385 85.03371329674805 0 0 0
309 103 2 -0.35 5.058192982269694 18.817568789371432 86.97606173379785 0 0 0
411 137 2 -0.35 0.5816711661835321 10.947684733423012 87.73917633700218 0 0 0
413 138 2 -0.35 8.63868252480707 12.926130916852275 85.4689400510469 0 0 0
505 169 1 0.7 2.381779182975662 11.492936814305576 85.32856162733835 0 0 0
506 169 2 -0.35 2.1686389249035343 10.46540498779592 84.83163670236839 0 0 0
507 169 2 -0.35 2.5999096189475153 12.52169531989479 85.82066141503296 0 0 0
742 248 1 0.7 8.323648624671545 16.162028446717116 86.59916219382083 0 0 0
743 248 2 -0.35 7.311112161113851 16.508047796539557 87.04939598840859 0 0 0
2283 761 2 -0.35 2.93680450041956 19.881381317974824 84.96364767599827 0 0 0
3623 1208 2 -0.35 0.035301585606683 16.138375315376226 85.13326234626419 1 0 0
3622 1208 1 0.7 1.1750945015806684 15.96499727203165 84.99602807693591 1 0 0
380 127 2 -0.35 10.085323363550371 0.08289848395737695 101.62347199829502 0 0 0
79 27 1 0.7 16.041294268633703 13.924175020940131 85.2727531209077 0 0 0
81 27 2 -0.35 16.956762294811877 13.568826561101917 84.65403992626351 0 0 0
84 28 2 -0.35 12.636161582986382 17.91549719443833 82.34187469200735 0 0 0
478 160 1 0.7 12.865630948071155 14.26906755794065 84.00636969133907 0 0 0
479 160 2 -0.35 12.40695402183176 15.249716402100844 84.42616233150198 0 0 0
480 160 2 -0.35 13.32164607174167 13.28954152038241 83.58325284644785 0 0 0
631 211 1 0.7 15.460997626713056 17.019192360343652 82.90976942697856 0 0 0
632 211 2 -0.35 15.188315057769001 15.897863275563546 83.04149718148169 0 0 0
633 211 2 -0.35 15.740189642400905 18.137230542484104 82.76948074643946 0 0 0
666 222 2 -0.35 15.425168378609774 10.909628733413411 84.85369860895709 0 0 0
724 242 1 0.7 9.828448153295216 15.510799990704442 82.89968562540137 0 0 0
725 242 2 -0.35 9.75455454274762 16.666327005737696 82.8239326736968 0 0 0
726 242 2 -0.35 9.9116209754939 14.354744040355591 82.96754206208507 0 0 0
847 283 1 0.7 9.351488196952772 11.501411837941536 82.0638223924013 0 0 0
849 283 2 -0.35 9.794071205985551 11.107073814701659 83.06259330139589 0 0 0
273 91 2 -0.35 12.641385108582753 9.919782067627553 83.83085106486523 0 0 0
80 27 2 -0.35 15.13314270533416 14.274103119836223 85.90688449449445 0 0 0
109 37 1 0.7 15.101794322667814 11.336139250976277 87.67995753580446 0 0 0
110 37 2 -0.35 16.109717274321273 11.904097068587243 87.78506670738064 0 0 0
111 37 2 -0.35 14.093600222185845 10.770701115982535 87.57037952644146 0 0 0
412 138 1 0.7 9.792896538245916 12.844810806512776 85.56035821967643 0 0 0
414 138 2 -0.35 10.946709664953353 12.768203725301005 85.6606329331411 0 0 0
490 164 1 0.7 17.95792437630566 18.054425303193796 87.16575109744896 0 0 0
463 155 1 0.7 13.571648931556213 17.121360307413674 86.42646714757298 0 0 0
464 155 2 -0.35 12.82773830657187 16.803002112694934 87.25933954686475 0 0 0
465 155 2 -0.35 14.31546206580933 17.438395676830517 85.59415024121 0 0 0
491 164 2 -0.35 16.84517419667668 18.098470305652647 87.4923348061434 0 0 0
649 217 1 0.7 10.558976229534299 18.632676526178358 86.21102217105934 0 0 0
650 217 2 -0.35 9.957218166727468 18.68413160095672 87.20225065555226 0 0 0
651 217 2 -0.35 11.16140275815482 18.577183717936236 85.22065181517134 0 0 0
3801 1267 2 -0.35 0.21964196666130034 2.8920783928352147 104.97243123122828 1 0 0
82 28 1 0.7 11.859693228150205 18.77899673713665 82.34622007844305 0 0 0
83 28 2 -0.35 11.080110463894012 19.638937889417246 82.33939728751656 0 0 0
489 163 2 -0.35 12.518313061490824 12.923072230520246 119.39636884727251 0 0 0
137 46 2 -0.35 17.899720338473315 14.993188289313855 87.27509027223601 0 0 0
4154 1385 2 -0.35 17.965455258743606 16.472989644380622 84.43916736011496 0 0 0
175 59 1 0.7 6.685762392037788 0.9442760939754766 90.1798971524512 0 0 0
152 51 2 -0.35 6.641302711394023 7.228731988968242 89.85678456754019 0 0 0
310 104 1 0.7 9.050782258323569 3.8594682043142505 90.41530625779367 0 0 0
311 104 2 -0.35 8.460021318386778 4.743855751917781 90.88152368250897 0 0 0
415 139 1 0.7 5.4452611552557375 4.04400642811145 88.62770473708652 0 0 0
416 139 2 -0.35 4.8721788752353845 4.693940769468116 89.39953052382056 0 0 0
417 139 2 -0.35 6.009413508954667 3.3899232070050496 87.85160892370229 0 0 0
601 201 1 0.7 4.130798179799164 8.193787874157284 91.14995463614434 0 0 0
602 201 2 -0.35 3.5989172067327844 8.259326373150486 90.12103291521096 0 0 0
151 51 1 0.7 7.7273040637097505 7.634908159990093 89.89135636030069 0 0 0
603 201 2 -0.35 4.682407946635756 8.142105544607375 92.17049397377163 0 0 0
2297 766 2 -0.35 18.190808326153917 19.959149086353463 99.6694312406478 0 0 0
16 6 1 0.7 4.0317464811236885 0.6558815641664818 93.05828251296657 0 0 0
17 6 2 -0.35 3.476231561509614 0.9619713777506774 94.02987167543003 0 0 0
18 6 2 -0.35 4.597361877910719 0.3470115992694249 92.09271620917708 0 0 0
124 42 1 0.7 7.283167677398963 2.5033446329927354 94.09469486371216 0 0 0
125 42 2 -0.35 6.40993800107635 2.0604350616464315 94.71984182833897 0 0 0
126 42 2 -0.35 8.16075622574165 2.9439200864834065 93.47534008375149 0 0 0
141 47 2 -0.35 0.7042666485855983 3.8756962791440834 93.0564631999764 0 0 0
163 55 1 0.7 7.765445721551762 8.556717136009311 95.47318023356124 0 0 0
164 55 2 -0.35 6.779083960190762 7.970585412038183 95.64993683220544 0 0 0
165 55 2 -0.35 8.759842032531894 9.129094895243387 95.29391601228448 0 0 0
177 59 2 -0.35 6.640543037134973 2.063337361383403 90.48548173987406 0 0 0
265 89 1 0.7 3.267539081675559 4.445361669933085 91.82707009932231 0 0 0
266 89 2 -0.35 2.9834150635126555 5.569534936109555 91.76201965558498 0 0 0
267 89 2 -0.35 3.5429692785160105 3.3187298437783572 91.88813299484951 0 0 0
580 194 1 0.7 3.732718262551081 7.557027154902169 95.02783331504072 0 0 0
581 194 2 -0.35 3.9569932110763255 6.450818519445516 94.7549350692813 0 0 0
582 194 2 -0.35 3.500404015082333 8.663480452040377 95.29291185542846 0 0 0
873 291 2 -0.35 7.529054355695777 6.818221670862292 92.92793356982732 0 0 0
872 291 2 -0.35 5.998334395958579 5.074740903242208 92.82041217327715 0 0 0
871 291 1 0.7 6.764543297624261 5.944712961460737 92.87756958641151 0 0 0
694 232 1 0.7 2.5305328510172957 1.3122042096635922 89.92209288954517 0 0 0
695 232 2 -0.35 3.1877298468387254 1.8286152690422377 89.11472366838555 0 0 0
696 232 2 -0.35 1.8720296771720695 0.796346391477853 90.72705808937339 0 0 0
707 236 2 -0.35 7.257468220611526 4.930688217946134 95.77466176339261 0 0 0
3718 1240 1 0.7 0.4239227459057005 7.21715068023095 84.68369750295719 1 0 0
792 264 2 -0.35 0.7748212290522033 3.7439987143371734 89.79813986000859 0 0 0
288 96 2 -0.35 7.08543775915039 9.969679355178332 92.94133914898828 0 0 0
296 99 2 -0.35 0.875847692571082 7.153033997324521 93.53260929109155 0 0 0
542 181 2 -0.35 1.4589554650337135 0.07756565512214911 119.06829256982047 0 0 0
295 99 1 0.7 0.429226264454021 6.891589164398346 92.49314396039927 0 0 0
410 137 2 -0.35 0.7627351188403355 9.685546330499244 89.67946300703122 0 0 0
3809 1270 2 -0.35 0.01831314992481481 13.59225018395827 100.62463110990636 1 0 0
487 163 1 0.7 12.220020930206065 13.953249333875046 118.95253967264074 0 0 0
4117 1373 1 0.7 0.36070630568081574 19.330069681945833 94.22808898394761 1 0 0
807 269 2 -0.35 15.53120315745946 2.668002908176423 92.28703844357369 0 0 0
258 86 2 -0.35 11.191635240668761 6.154200402662081 89.91975203892717 0 0 0
312 104 2 -0.35 9.640578632983726 2.9796921555240616 89.94004045239441 0 0 0
256 86 1 0.7 11.199390565842013 6.366794915326916 88.77859014024138 0 0 0
418 140 1 0.7 16.15622873585679 7.902949461084556 90.33675044344402 0 0 0
420 140 2 -0.35 16.276713100783038 9.050038861566849 90.2103115416199 0 0 0
461 154 2 -0.35 14.022141179644064 7.537337028163956 88.3806380196664 0 0 0
474 158 2 -0.35 11.553538935195302 9.345751914584605 88.96876094429241 0 0 0
523 175 1 0.7 13.188270357780821 3.2758104250909947 89.59528313170959 0 0 0
524 175 2 -0.35 13.128771588155855 2.376966738879198 90.32768488689007 0 0 0
525 175 2 -0.35 13.240882974368926 4.163270816068248 88.84844420286063 0 0 0
778 260 1 0.7 17.04956550023581 4.516766918577649 88.95200148233235 0 0 0
780 260 2 -0.35 16.22947493716661 3.752000558743183 89.25147965188913 0 0 0
153 51 2 -0.35 8.804739371148592 8.06194012503213 89.94973755414277 0 0 0
65 22 2 -0.35 18.159119419401055 4.580401163861058 91.74103838315045 0 0 0
32 11 2 -0.35 17.61907234046503 7.45307589089994 92.94288964615535 0 0 0
64 22 1 0.7 17.871860644155333 4.397963815810677 92.8509444772061 0 0 0
66 22 2 -0.35 17.597604639666148 4.229500680578208 93.9661602399456 0 0 0
142 48 1 0.7 11.166622253159074 6.111977602830344 96.24547462893288 0 0 0
144 48 2 -0.35 10.047833180181295 6.3462765913826 96.04032418576621 0 0 0
419 140 2 -0.35 16.043112111463373 6.755388180778754 90.46387890416622 0 0 0
547 183 1 0.7 17.247158994465355 1.0971050278129018 95.70633500753206 0 0 0
549 183 2 -0.35 18.120933507138993 0.7615273257425401 96.39313418251842 0 0 0
559 187 1 0.7 13.557901475427252 6.382250096197522 91.80550676504288 0 0 0
560 187 2 -0.35 13.672538539557197 5.230107779773982 91.72890649625957 0 0 0
561 187 2 -0.35 13.449406873330668 7.536558839508034 91.88369102736175 0 0 0
2168 723 2 -0.35 18.13900933069548 1.6679180019451896 90.37332823542042 0 1 0
703 235 1 0.7 14.996170107061838 6.663844720487744 95.43947692832147 0 0 0
704 235 2 -0.35 14.878584398049698 6.075041179005797 94.44622866861594 0 0 0
712 238 1 0.7 11.00351685418627 3.758510258097279 93.56412100543537 0 0 0
713 238 2 -0.35 10.94492703714497 3.684160197093506 94.72104218749713 0 0 0
714 238 2 -0.35 11.06511527106425 3.8432283885984506 92.40895265437521 0 0 0
783 261 2 -0.35 13.273534712066589 10.546891199501204 93.31620086781221 0 0 0
805 269 1 0.7 14.624696147061787 2.6854208340203156 93.01325508093063 0 0 0
806 269 2 -0.35 13.71590360176681 2.7103681773626183 93.73589455821143 0 0 0
835 279 1 0.7 10.55888721050319 8.008344699717544 92.81520801076934 0 0 0
836 279 2 -0.35 10.788233234454694 6.92696990312692 93.17013175413433 0 0 0
837 279 2 -0.35 10.340632086306021 9.093546074230641 92.46604514290398 0 0 0
781 261 1 0.7 14.188182070885917 9.899449035631116 93.61881006219231 0 0 0
782 261 2 -0.35 15.104802471842511 9.261420612440064 93.93278378579414 0 0 0
2117 706 2 -0.35 11.316517001025055 0.6026364790741945 88.41105622421392 0 1 0
2018 673 2 -0.35 10.855440201422871 0.6680944821591258 93.2677226327229 0 1 0
2017 673 1 0.7 11.434390725897071 0.10578446896899411 94.10165073919171 0 1 0
2167 723 1 0.7 17.356426980699794 0.8524663250852903 90.63815047603397 0 1 0
548 183 2 -0.35 16.37447631772278 1.4365983449416069 95.02110451552305 0 0 0
1774 592 1 0.7 7.0240994533849825 19.659300245276746 95.95369597472701 0 0 0
2088 696 2 -0.35 14.574998171741978 0.2925667380999325 88.61616971452827 0 1 0
2116 706 1 0.7 10.6605704828982 0.25940265325534484 89.30607656736262 0 1 0
1775 592 2 -0.35 6.456010503028832 19.464510946510437 94.96077580480706 0 0 0
72 24 2 -0.35 4.046990461892498 10.825692485669672 88.19807833785543 0 0 0
409 137 1 0.7 0.6746004933509725 10.316244801004677 88.70943944957995 0 0 0
445 149 1 0.7 7.630379363238714 12.643310572264157 88.15854574262852 0 0 0
446 149 2 -0.35 8.205510959556937 13.623765357332188 88.39707025064553 0 0 0
447 149 2 -0.35 7.061990736843211 11.659872190604869 87.92072485823788 0 0 0
502 168 1 0.7 4.771713410975554 17.783836601356743 89.7499381384334 0 0 0
503 168 2 -0.35 4.031030375383137 18.674318784300226 89.83410887930344 0 0 0
2355 785 2 -0.35 1.9990999902836968 17.88354335012532 87.31759926550993 0 0 0
1879 627 1 0.7 14.98668219751849 0.1952340472534349 106.25288372998051 0 1 0
746 249 2 -0.35 7.439064157113159 19.52305524523518 89.5468793191502 0 0 0
784 262 1 0.7 1.558740928564477 13.820116449962718 88.28793675275728 0 0 0
785 262 2 -0.35 0.8872356062321237 14.353479222379773 87.50557915641949 0 0 0
786 262 2 -0.35 2.224636317741976 13.28976680631176 89.07722913198161 0 0 0
846 282 2 -0.35 0.721852901944358 18.680832844847437 90.34462632625205 0 0 0
3604 1202 1 0.7 0.439271992955118 15.404727597493082 94.60327963640289 1 0 0
2 1 2 -0.35 9.029247755827805 14.481550791247678 94.70597035110403 0 0 0
154 52 1 0.7 1.3948794826977584 10.133187048755888 93.54923193227823 0 0 0
155 52 2 -0.35 2.052306509035902 9.827164051721345 92.64239211766873 0 0 0
156 52 2 -0.35 0.7284514517377877 10.434535644733984 94.45095250817441 0 0 0
178 60 1 0.7 5.520772795613907 15.734785439957324 93.40393613091956 0 0 0
179 60 2 -0.35 6.206997631234262 15.701783008410338 94.33966838251133 0 0 0
180 60 2 -0.35 4.826895123420819 15.770907475640996 92.47369349423022 0 0 0
220 74 1 0.7 4.820419449936115 13.198325116756529 90.56556748076031 0 0 0
221 74 2 -0.35 4.366108215893691 12.835843186278252 91.5704983911449 0 0 0
222 74 2 -0.35 5.285092077657392 13.560397830782094 89.56597677719634 0 0 0
894 298 2 -0.35 3.374274184327116 12.01690552624589 94.41565991982543 0 0 0
893 298 2 -0.35 3.21496112579707 14.330510695789226 94.45645726312306 0 0 0
892 298 1 0.7 3.287053304653166 13.173066446318781 94.43552054195929 0 0 0
286 96 1 0.7 6.78303277946422 10.209520738635117 91.8477775416176 0 0 0
287 96 2 -0.35 6.471981785355049 10.435534918894037 90.75282511785734 0 0 0
337 113 1 0.7 1.987047632349548 15.352101228350227 91.18332702575232 0 0 0
339 113 2 -0.35 2.5220872019800655 16.016384570171347 90.39674736998076 0 0 0
382 128 1 0.7 7.726468382552875 18.7840125793713 92.37698220087049 0 0 0
384 128 2 -0.35 6.906895926114026 17.97961632451087 92.20981261420377 0 0 0
3605 1202 2 -0.35 0.9734246539070095 16.42337246931304 94.44157351289203 1 0 0
667 223 1 0.7 6.228832979748083 11.7823184244847 94.99009965611786 0 0 0
668 223 2 -0.35 6.410665990264418 12.63701665029539 94.22579606168614 0 0 0
697 233 1 0.7 3.3234327634891523 18.079687624283974 93.74174933780702 0 0 0
698 233 2 -0.35 2.7748665283500236 18.372771133326157 92.76233786634424 0 0 0
1 1 1 0.7 9.099618239968775 15.428996467368385 94.03799072147359 0 0 0
3 1 2 -0.35 9.169986335893206 16.37406300725663 93.36604038915128 0 0 0
349 117 1 0.7 8.170001057495298 15.590863391806344 90.6256719610796 0 0 0
350 117 2 -0.35 7.556804089695935 14.837216487494462 91.26209252928616 0 0 0
383 128 2 -0.35 8.542675030212614 19.592872758138874 92.54576578311145 0 0 0
504 168 2 -0.35 5.522766202140101 16.90371151071596 89.65579388809041 0 0 0
844 282 1 0.7 1.1256239217403288 19.712293675622124 90.69285300035916 0 0 0
2353 785 1 0.7 1.8983697693360122 19.008960222981347 87.58315888707008 0 0 0
338 113 2 -0.35 1.4563251816492382 14.682251604233805 91.96813099201303 0 0 0
699 233 2 -0.35 3.8702036181660247 17.771763835191912 94.71812147270512 0 0 0
305 102 2 -0.35 18.54263448702499 0.9049769749177813 116.9956878781734 0 0 0
473 158 2 -0.35 9.914721200804353 10.813931168671594 88.2291358182801 0 0 0
12 4 2 -0.35 11.829883023957462 11.873632646532107 90.73191629789908 0 0 0
472 158 1 0.7 10.731909413762986 10.07682349573531 88.59757875285489 0 0 0
10 4 1 0.7 12.927044550845 11.513155817170029 90.61822245730009 0 0 0
11 4 2 -0.35 14.027907928670988 11.161233503208038 90.51377610394486 0 0 0
313 105 1 0.7 15.507298730014494 18.962485631236902 90.02625698282284 0 0 0
314 105 2 -0.35 14.408532678320206 18.747010055108355 89.72086444909101 0 0 0
315 105 2 -0.35 16.60896991894634 19.172049338384475 90.32581308876772 0 0 0
496 166 1 0.7 12.547500772231398 14.32541698649639 92.39763983010455 0 0 0
497 166 2 -0.35 11.456532899545879 14.488133618536322 92.75729002488914 0 0 0
498 166 2 -0.35 13.636282218497753 14.135566250873984 92.04137744718649 0 0 0
673 225 1 0.7 11.740606492249471 17.43984217007815 90.15494028110989 0 0 0
674 225 2 -0.35 11.318914110504569 18.509534660775635 89.99336208074132 0 0 0
675 225 2 -0.35 12.160141783785916 16.36969332900208 90.32085853151983 0 0 0
766 256 1 0.7 14.41670339459615 14.740013244136184 88.92792927693557 0 0 0
767 256 2 -0.35 13.712720341700843 13.819265913182889 88.85861351980193 0 0 0
768 256 2 -0.35 15.133622210636712 15.650602630226247 88.99507087905707 0 0 0
365 122 2 -0.35 10.571516088635315 11.72244944887113 94.44218874822158 0 0 0
85 29 1 0.7 11.241618095228628 18.532785907365092 94.00014398296274 0 0 0
86 29 2 -0.35 10.648981839066952 19.087420942805664 94.8304357442939 0 0 0
87 29 2 -0.35 11.832452143701811 17.98183229849067 93.16665616367996 0 0 0
289 97 1 0.7 17.301907191849278 16.25484965426448 90.94326343798421 0 0 0
290 97 2 -0.35 16.50593739182329 16.19722785139146 91.7866218401885 0 0 0
351 117 2 -0.35 8.798109410280055 16.346240510087227 90.00682403023505 0 0 0
364 122 1 0.7 9.892338405956192 11.898950407702422 93.51632694722495 0 0 0
366 122 2 -0.35 9.211689158817782 12.085116408982206 92.59465892615088 0 0 0
604 202 1 0.7 17.894088784334187 18.069297814144598 93.65352168721088 0 0 0
483 161 2 -0.35 17.88353994653443 14.055807950614101 97.20953780476908 0 0 0
606 202 2 -0.35 17.24498388093218 17.87240989548483 94.59575539113605 0 0 0
676 226 1 0.7 16.181694495320134 12.70233097047445 91.75931801591602 0 0 0
677 226 2 -0.35 16.05106184604233 12.123726044148174 92.75789354485568 0 0 0
678 226 2 -0.35 16.30962961743902 13.280104196477104 90.76029727304223 0 0 0
718 240 1 0.7 13.421035795798169 12.346434163788373 95.69796019604148 0 0 0
719 240 2 -0.35 13.287888257026607 13.33115573424855 95.0983368325684 0 0 0
720 240 2 -0.35 13.556928609455133 11.349240319619543 96.27572368557509 0 0 0
867 289 2 -0.35 16.150368678499706 14.774599588395064 94.57149594898098 0 0 0
866 289 2 -0.35 14.321863053076957 16.175625478227243 94.28450769828093 0 0 0
865 289 1 0.7 15.240703465534187 15.481092734150447 94.42487121919154 0 0 0
2592 864 2 -0.35 14.862126572484888 18.967521702707643 92.81544246863459 0 0 0
2590 864 1 0.7 14.369616991512816 19.775902348712737 93.48674931768767 0 0 0
28 10 1 0.7 1.2845136666962111 0.8469265480521835 96.98933235390263 0 0 0
30 10 2 -0.35 1.0759375496262094 0.48311871349042723 95.90672970040342 0 0 0
243 81 2 -0.35 4.6360914274089735 6.8521183831694445 97.71450278543922 0 0 0
882 294 2 -0.35 2.76854588100338 3.6275928917909375 95.72006157795566 0 0 0
881 294 2 -0.35 4.64831956574256 3.811882608300246 97.07053547979439 0 0 0
880 294 1 0.7 3.710747226564303 3.7223033362185984 96.39215126096536 0 0 0
706 236 1 0.7 7.429831758593891 5.396868074078223 96.82423115127924 0 0 0
708 236 2 -0.35 7.616393793247775 5.873384143649954 97.86741246672462 0 0 0
728 243 2 -0.35 2.3162062278002926 8.278163729721909 99.15328012085534 0 0 0
838 280 1 0.7 7.53227597002133 1.6466125614004898 97.71819170861784 0 0 0
840 280 2 -0.35 7.6342264560521285 2.776809680593904 97.96087702997437 0 0 0
202 68 1 0.7 1.7013412518662292 9.054457588727564 102.6993125215027 0 0 0
203 68 2 -0.35 1.8147828843256895 8.025302224564546 102.17389686710813 0 0 0
241 81 1 0.7 5.077996389493956 7.254104045188828 98.70905695178597 0 0 0
242 81 2 -0.35 5.5209410379888535 7.649605394218856 99.70646605747905 0 0 0
343 115 1 0.7 9.684299980866093 6.556532366189612 104.80009623776364 0 0 0
3690 1230 2 -0.35 1.4141755305353478 4.272024407722003 98.43037833275099 1 0 0
421 141 1 0.7 2.0936298765633494 2.762962969137048 102.83139952269886 0 0 0
422 141 2 -0.35 1.924003882748329 1.6273609720750706 102.65969575849591 0 0 0
423 141 2 -0.35 2.2671796096117447 3.898312353104787 102.99609798290588 0 0 0
508 170 1 0.7 7.210539397231327 5.286725914699902 101.84013111613785 0 0 0
509 170 2 -0.35 7.827977218397108 5.484382124858967 102.80269268455484 0 0 0
510 170 2 -0.35 6.593854471036888 5.068128927395451 100.88076815854082 0 0 0
528 176 2 -0.35 8.083321420241793 2.4863170250130664 102.15253767578199 0 0 0
556 186 1 0.7 3.7861233332288484 5.876030399835682 101.61067152338133 0 0 0
557 186 2 -0.35 3.217186056866663 5.601917017405686 100.635817145487 0 0 0
558 186 2 -0.35 4.369183897110898 6.154147384083455 102.57465790305173 0 0 0
607 203 1 0.7 5.495000692649674 9.020360405712854 102.28330383572327 0 0 0
608 203 2 -0.35 4.531733445026821 9.538617442368126 101.8941127989736 0 0 0
609 203 2 -0.35 6.459575053770689 8.512055684032541 102.68003863077992 0 0 0
652 218 1 0.7 5.444611939929009 1.8978118548619176 100.97902269441289 0 0 0
653 218 2 -0.35 4.855257291248252 2.5411982588680617 101.74538622825698 0 0 0
654 218 2 -0.35 6.027304363583166 1.253478366090627 100.20879626140031 0 0 0
727 243 1 0.7 1.3440314503312487 7.678190183214349 99.35681251652157 0 0 0
808 270 1 0.7 9.612758834432608 7.556841985209491 99.70650172377303 0 0 0
809 270 2 -0.35 8.835512160775645 7.786400339843324 100.53648194613521 0 0 0
810 270 2 -0.35 10.386811435481139 7.3338744123440565 98.87022643164184 0 0 0