ITEM: TIMESTEP
0
ITEM: NUMBER OF NODES
64
ITEM: BOX BOUNDS
0 40
0 40
0 240
ITEM: NODES
1 1 0 0 0
2 1 18.75 0 0
3 1 18.75 20 0
4 1 0 20 0
5 1 0 0 120
6 1 18.75 0 120
7 1 18.75 20 120
8 1 0 20 120
9 1 0 0 120
10 1 18.75 0 120
11 1 18.75 20 120
12 1 0 20 120
13 1 0 0 240
14 1 18.75 0 240
15 1 18.75 20 240
16 1 0 20 240
17 1 0 20 0
18 1 18.75 20 0
19 1 18.75 40 0
20 1 0 40 0
21 1 0 20 120
22 1 18.75 20 120
23 1 18.75 40 120
24 1 0 40 120
25 1 0 20 120
26 1 18.75 20 120
27 1 18.75 40 120
28 1 0 40 120
29 1 0 20 240
30 1 18.75 20 240
31 1 18.75 40 240
32 1 0 40 240
33 1 18.75 0 0
34 1 40 0 0
35 1 40 20 0
36 1 18.75 20 0
37 1 18.75 0 120
38 1 40 0 120
39 1 40 20 120
40 1 18.75 20 120
41 1 18.75 0 120
42 1 40 0 120
43 1 40 20 120
44 1 18.75 20 120
45 1 18.75 0 240
46 1 40 0 240
47 1 40 20 240
48 1 18.75 20 240
49 1 18.75 20 0
50 1 40 20 0
51 1 40 40 0
52 1 18.75 40 0
53 1 18.75 20 120
54 1 40 20 120
55 1 40 40 120
56 1 18.75 40 120
57 1 18.75 20 120
58 1 40 20 120
59 1 40 40 120
60 1 18.75 40 120
61 1 18.75 20 240
62 1 40 20 240
63 1 40 40 240
64 1 18.75 40 240
ITEM: TIMESTEP
0
ITEM: NUMBER OF CUBES
8
ITEM: CUBES
1 1 1 2 3 4 5 6 7 8
2 1 9 10 11 12 13 14 15 16
3 1 17 18 19 20 21 22 23 24
4 1 25 26 27 28 29 30 31 32
5 1 33 34 35 36 37 38 39 40
6 1 41 42 43 44 45 46 47 48
7 1 49 50 51 52 53 54 55 56
8 1 57 58 59 60 61 62 63 64
