LAMMPS data file via write_data, version 29 Aug 2024, timestep = 200000, units = real

7050 atoms
2 atom types
4700 bonds
1 bond types
2350 angles
1 angle types

0 40 xlo xhi
0 40 ylo yhi
0 240 zlo zhi

Masses

1 12.0107
2 15.9994

Pair Coeffs # lj/cut/coul/long/omp

1 0.0536545 2.8
2 0.156989 3.05

Bond Coeffs # harmonic/omp

1 1028.27 1.16

Angle Coeffs # harmonic/omp

1 55.96 180

Atoms # full

120 40 2 -0.35 14.601867636866597 5.454849090402173 1.159275501620784 -1 -2 1
5939 1980 2 -0.35 17.023176025152807 29.64044116105501 6.350157143395769 1 -5 1
5940 1980 2 -0.35 15.591443587099555 28.660745528332846 4.805036512884056 1 -5 1
5938 1980 1 0.7 16.334015168266653 29.09515059321098 5.594995182404592 1 -5 1
6993 2331 2 -0.35 2.2290453972289077 1.5117689862734789 19.268396012987687 2 -2 1
6991 2331 1 0.7 2.765713972444965 1.8145241013387838 18.286909207534038 2 -2 1
6992 2331 2 -0.35 3.296444930831648 2.105202685121126 17.291917363702314 2 -2 1
7014 2338 2 -0.35 6.630480619280767 21.27147028068459 9.396180092640714 2 -5 1
7012 2338 1 0.7 5.771284128670762 21.93698022795546 9.78776365615816 2 -5 1
7013 2338 2 -0.35 5.028541557745966 22.717466684537865 10.17953758809076 2 -5 1
3394 1132 1 0.7 1.7124387245927275 13.465209510685527 21.50938841470237 0 0 0
3395 1132 2 -0.35 1.0084189448160887 14.360447665801912 21.22338861380602 0 0 0
3396 1132 2 -0.35 2.419412570190663 12.54743399480608 21.75575412479936 0 0 0
6892 2298 1 0.7 19.394854493708202 11.3631638874786 21.728351577731463 1 -1 0
6893 2298 2 -0.35 18.908379361274026 10.612326001985299 22.457507954616812 1 -1 0
3358 1120 1 0.7 7.587146158870803 0.41682251749700394 31.96306222588309 -1 0 0
3360 1120 2 -0.35 8.610007362040474 0.2022983793497027 32.46315575299461 -1 0 0
3359 1120 2 -0.35 6.50574217935217 0.5603445949558892 31.515115364473093 -1 0 0
3991 1331 1 0.7 15.460249010199036 13.43795462298014 33.644270969837955 1 0 0
3993 1331 2 -0.35 16.382021383346903 12.91508106130632 33.178098867408174 1 0 0
3903 1301 2 -0.35 11.241530506356064 23.274526387308093 34.13211672966819 0 0 0
3498 1166 2 -0.35 3.3294136300858543 9.565599966064056 41.095012002020866 6 0 1
6246 2082 2 -0.35 4.191964350495251 3.0605290600526134 38.41837566579599 1 0 0
6244 2082 1 0.7 3.0760935347245266 3.150172129713006 38.67062066025209 1 0 0
6245 2082 2 -0.35 1.9695613508081995 3.2159576255397133 38.95535095528102 1 0 0
3339 1113 2 -0.35 8.421214154285673 5.694187693111407 39.27288961671614 0 0 0
3337 1113 1 0.7 8.916835317366765 4.803100069836726 39.846478173773654 0 0 0
4413 1471 2 -0.35 4.59555699168181 6.476731436684363 39.957619661049335 1 0 0
3338 1113 2 -0.35 9.452965949238262 3.92153492699887 40.393446378671655 0 0 0
4411 1471 1 0.7 5.467415542344712 6.629976090289993 40.66487912945362 1 0 0
4412 1471 2 -0.35 6.349198142244315 6.86492896600331 41.38672586800828 1 0 0
6251 2084 2 -0.35 6.712493116726181 2.8382233524699494 40.07252155610838 1 1 0
1412 471 2 -0.35 6.104076572985892 9.22254108598153 39.245917948172206 0 1 0
4057 1353 1 0.7 2.777018455296447 4.948702747721961 41.469444045007236 1 0 0
6250 2084 1 0.7 6.769568597396195 1.817168969264722 39.58518998802738 1 1 0
6252 2084 2 -0.35 6.80793420094039 0.8065927767781091 39.01540370041382 1 1 0
2595 865 2 -0.35 4.502029640445457 0.7822248373499402 42.38918391508885 0 1 0
4058 1353 2 -0.35 1.9490437251116066 5.78045218035209 41.39800930236749 1 0 0
3265 1089 1 0.7 7.930038801111684 9.349709932800248 42.487221280963446 0 0 0
3496 1166 1 0.7 2.2096989583583277 9.759323728226208 40.87991841055033 6 0 1
4059 1353 2 -0.35 3.6226121065936328 4.163005863353959 41.5152432005539 1 0 0
110 37 2 -0.35 16.646441729585572 39.526670817866204 40.16626910901927 0 -1 0
109 37 1 0.7 17.519710964544892 39.63415739513442 39.43128538359643 0 -1 0
6024 2008 2 -0.35 17.018396965024618 6.853232747250713 41.73737756027264 0 1 0
6022 2008 1 0.7 16.636506023640205 5.774376771836182 41.571844956510056 0 1 0
6023 2008 2 -0.35 16.245334907143125 4.681352156725385 41.43630902412992 0 1 0
3510 1170 2 -0.35 10.341838638972296 0.2349377729219171 41.745822712264605 0 1 0
111 37 2 -0.35 18.4517821753777 39.71081687055322 38.79907843646507 0 -1 0
3509 1170 2 -0.35 12.590167348619286 0.45955839410453975 41.37138848502328 0 1 0
3508 1170 1 0.7 11.46413766627726 0.3056868244363645 41.60283357656512 0 1 0
118 40 1 0.7 14.256479638041899 6.364817584998926 0.5317918071934854 -1 -2 1
5131 1711 1 0.7 19.477012945150634 9.529955676557734 42.470707417929916 0 0 0
1411 471 1 0.7 5.1830245257768635 9.833512354821488 38.93116026591208 0 1 0
1413 471 2 -0.35 4.387054762585433 10.550583470277804 38.52532812568531 0 1 0
3266 1089 2 -0.35 6.930392432169707 9.976250363894193 42.38102472199266 0 0 0
3497 1166 2 -0.35 1.103400861025223 9.923450932107475 40.57821687083779 6 0 1
955 319 1 0.7 5.8231416755671805 12.7107975619559 41.04828726326316 -1 -1 1
957 319 2 -0.35 6.905686364941572 12.63383972708916 40.64953714988257 -1 -1 1
4072 1358 1 0.7 2.2755722348945593 13.838222258956701 40.35427557570848 1 0 0
4074 1358 2 -0.35 2.8425746271018175 14.040330473986254 39.321321466617846 1 0 0
956 319 2 -0.35 4.747577198328264 12.853802542272117 41.455896977185034 -1 -1 1
2937 979 2 -0.35 1.9366067806746257 16.901618059481134 41.50905736973785 0 0 0
4073 1358 2 -0.35 1.6269404336367885 13.597706573680595 41.289289841781574 1 0 0
2936 979 2 -0.35 3.807037266772877 18.257651294558652 41.67326772010735 0 0 0
2935 979 1 0.7 2.8522206767997855 17.592491196893466 41.5886800030002 0 0 0
2668 890 1 0.7 9.156108112030976 16.976672388528666 42.25183013340454 0 0 0
2670 890 2 -0.35 8.739072161126915 16.03122925025591 42.80893551621023 0 0 0
2669 890 2 -0.35 9.5837173345519 17.858333088182505 41.66210181786763 0 0 0
3992 1331 2 -0.35 14.58457290348948 14.002040912416424 34.18633908980085 1 0 0
5199 1733 2 -0.35 12.55765522952318 16.703527757023128 42.921254541622844 0 0 0
5162 1721 2 -0.35 16.447459964668397 11.708204537983875 40.68008204383277 0 -1 0
5161 1721 1 0.7 17.531137833751874 11.451352357594427 40.3831439492896 0 -1 0
5197 1733 1 0.7 13.337288072870951 16.433119182260498 42.13568859640803 0 0 0
5163 1721 2 -0.35 18.651274225018447 11.328301323137051 40.103808874209356 0 -1 0
2970 990 2 -0.35 17.257735509486288 14.774480703119597 40.70241195104078 0 0 0
5198 1733 2 -0.35 14.248625041073083 16.249796669292422 41.441900169685546 0 0 0
2968 990 1 0.7 16.88177420056847 15.023697746621455 41.797298652611374 0 0 0
1408 470 1 0.7 18.501630277460514 14.853655679207808 37.66385961863213 0 0 0
5900 1967 2 -0.35 14.450680188883444 19.41050994143716 42.31481027011243 0 0 0
119 40 2 -0.35 13.975131787361283 7.359532414655376 239.96690160926127 -1 -2 0
2969 990 2 -0.35 16.56242079912187 15.294938105343734 42.90832487118431 0 0 0
1410 470 2 -0.35 18.344245128779196 13.826996172003117 37.15866475895582 0 0 0
6115 2039 1 0.7 8.584775861801358 23.249552951767637 39.19806067385157 0 0 0
6493 2165 1 0.7 3.8977575739861208 22.408407496096572 42.53752598139186 2 -1 1
6494 2165 2 -0.35 4.179354648896647 23.085342049390608 43.40402461607796 2 -1 1
6495 2165 2 -0.35 3.5679677643163457 21.702814428076067 41.696488956641176 2 -1 1
4148 1383 2 -0.35 6.586651739268291 29.839010922772747 41.38861547512503 0 0 0
4147 1383 1 0.7 6.663222200927854 28.72742724654863 41.034450633462505 0 0 0
4149 1383 2 -0.35 6.809833307058723 27.63162102356711 40.67555266291349 0 0 0
1309 437 1 0.7 0.6521002091350382 36.15702586108056 55.200566650440685 0 0 0
6649 2217 1 0.7 0.3820419712298287 25.052741035353648 40.75325192877923 1 0 0
6117 2039 2 -0.35 7.515057701983693 22.949701859555628 38.89042556133866 0 0 0
6650 2217 2 -0.35 0.7453042607372923 24.053599751991186 41.259549512690775 1 0 0
1265 422 2 -0.35 7.778988944302921 23.23614697412974 41.99519477642369 0 0 0
1110 370 2 -0.35 14.382919740632614 21.787603623115693 39.06695125040129 -1 0 0
1108 370 1 0.7 13.680570891061528 20.973291626075277 38.53968294800318 -1 0 0
1109 370 2 -0.35 13.08006347206508 20.299756714203774 37.87764815520751 -1 0 0
5994 1998 2 -0.35 9.443544529293264 26.601340126438267 42.18113825127351 0 0 0
6116 2039 2 -0.35 9.672720228645352 23.53356350971548 39.42570743630316 0 0 0
3902 1301 2 -0.35 12.85251226194971 22.41114475603405 35.544996910310395 0 0 0
3901 1301 1 0.7 12.090239053869416 22.896318855831225 34.83793833464745 0 0 0
5993 1998 2 -0.35 10.915165839045592 24.821388372150757 42.622977037084254 0 0 0
5992 1998 1 0.7 10.207997361120476 25.743813361367188 42.4495805071046 0 0 0
6927 2309 2 -0.35 14.196618987527433 22.90963548824208 41.997836342138115 0 -1 0
6925 2309 1 0.7 13.798913001409932 23.664433839403408 41.2138617672339 0 -1 0
6926 2309 2 -0.35 13.288064926685898 24.429850144332157 40.48221434754861 0 -1 0
6906 2302 2 -0.35 14.36237620681279 27.951385332090176 38.740171794158556 -1 0 0
2268 756 2 -0.35 10.472346509001563 30.178231312911507 41.33922475365893 0 0 0
6904 2302 1 0.7 14.449077689474015 28.171099330395045 39.87676740250419 -1 0 0
6905 2302 2 -0.35 14.681557006027745 28.481838234885295 40.96967590625268 -1 0 0
6901 2301 1 0.7 11.143863475472735 21.04304708451611 41.63594744718878 -8 -1 0
6903 2301 2 -0.35 11.818569985018163 20.747309387830736 40.74962655820449 -8 -1 0
1883 628 2 -0.35 15.754076011905909 25.0757811275264 44.58407200543791 0 0 0
2266 756 1 0.7 10.506796610305473 30.593330466679962 42.42538164640442 0 0 0
1884 628 2 -0.35 16.03054105336006 26.101093236922416 42.51733454833758 0 0 0
1882 628 1 0.7 15.875623929021597 25.61269276012861 43.57825812312981 0 0 0
6733 2245 1 0.7 3.922737931139195 39.40386810994835 37.846859977714296 1 -1 0
6734 2245 2 -0.35 3.150871136047828 39.86255458804043 38.58057661089653 1 -1 0
6735 2245 2 -0.35 4.683690650345489 38.89887730981302 37.143133041208756 1 -1 0
3022 1008 1 0.7 2.2380916297346247 36.25810794178154 40.578287579797546 1 0 0
3023 1008 2 -0.35 1.6572069333802 35.25729551323528 40.6631202018474 1 0 0
638 213 2 -0.35 7.306827282229383 38.902884060076275 41.09772045212014 0 0 0
6388 2130 1 0.7 8.431729552699132 35.923295159381766 43.02239722205773 1 0 0
6389 2130 2 -0.35 9.05170924781137 35.508572997873515 42.147144964366554 1 0 0
3024 1008 2 -0.35 2.837242833357942 37.245584999344196 40.49768561814641 1 0 0
5429 1810 2 -0.35 13.8216593509292 37.597483836388136 38.79732916142852 1 -1 0
1508 503 2 -0.35 17.641504049247636 32.068805898285284 41.3723415324069 0 0 0
1507 503 1 0.7 17.006799557588664 31.73165591215826 40.463377930461014 0 0 0
1509 503 2 -0.35 16.39205983024858 31.28868298974656 39.55068608523387 0 0 0
5428 1810 1 0.7 14.05330568600865 37.37220309964075 39.89074549292654 1 -1 0
5430 1810 2 -0.35 14.284997448935197 37.08972731995702 40.96681286723703 1 -1 0
218 73 2 -0.35 0.38095769974021726 7.707673861010487 43.71276763422501 0 0 0
3267 1089 2 -0.35 8.926563396130657 8.692979786593627 42.5954155522986 0 0 0
217 73 1 0.7 0.6187256309380155 8.606708484612408 44.43796775355949 0 0 0
219 73 2 -0.35 0.8817842021297341 9.467768648554916 45.1471164183691 0 0 0
766 256 1 0.7 5.443770914564005 6.725953751867322 48.63408497230283 0 1 0
767 256 2 -0.35 4.341509953288711 6.954721739738128 48.886593746265426 0 1 0
3080 1027 2 -0.35 3.2021479875684045 7.295456373143825 45.567637740902015 2 2 1
126 42 2 -0.35 6.361565646131838 2.6673864705306665 46.663320281159976 0 1 0
6709 2237 1 0.7 7.713869290484244 6.7361046362088475 45.27873361042876 1 0 0
6710 2237 2 -0.35 8.79644957365248 6.287872709187107 45.45607179151535 1 0 0
6711 2237 2 -0.35 6.637727537906163 7.209444981816028 45.12077121083713 1 0 0
3079 1027 1 0.7 3.669413022452843 6.604588507719322 44.75890700961356 2 2 1
3081 1027 2 -0.35 4.060154725344159 5.927294158156854 43.879520630115195 2 2 1
125 42 2 -0.35 5.881460429700249 0.4202277992262451 46.8618682871717 0 1 0
124 42 1 0.7 6.126449474540019 1.5439593065130988 46.76206755298303 0 1 0
6729 2243 2 -0.35 0.47132888661512373 27.896804388861185 189.09817244628195 1 0 0
4639 1547 1 0.7 8.620270061649284 3.26855238762735 43.75007362146988 1 0 0
4641 1547 2 -0.35 7.582918235745312 3.65522299741633 43.428278952149746 1 0 0
6124 2042 1 0.7 0.4780140508028169 7.6770947088886 196.74494889991036 1 0 0
5351 1784 2 -0.35 0.4663216205140409 15.932418956534434 189.45385054025562 1 0 0
4640 1547 2 -0.35 9.6207843769098 2.788758898586715 44.04136536625137 1 0 0
3 1 2 -0.35 7.4572155680859336 8.906965718332213 50.091883203923366 0 0 0
1 1 1 0.7 8.529954279092099 8.565588580978652 49.774550397128046 0 0 0
6998 2333 2 -0.35 3.5896074929873105 3.7119518828286098 47.52220248185524 0 1 1
6997 2333 1 0.7 2.8005653674240887 3.81900907420221 48.349415233702295 0 1 1
6999 2333 2 -0.35 1.9400685926950128 3.8198305710405025 49.12713307918598 0 1 1
2 1 2 -0.35 9.630219304242617 8.292601797966345 49.47089580326906 0 0 0
2391 797 2 -0.35 1.495799469507055 4.707167722893547 44.69754265683647 0 1 0
5462 1821 2 -0.35 4.227160448569934 9.893127837993315 50.40892309241899 1 1 0
2593 865 1 0.7 3.945764898789612 1.321453249827861 43.28628764104225 0 1 0
2594 865 2 -0.35 3.464943233960182 1.7679902385456079 44.25561858279778 0 1 0
1923 641 2 -0.35 4.524417997490864 2.8333713318309965 50.460363540788485 0 1 0
2389 797 1 0.7 1.1284051128726424 3.7125261756875028 45.114826430914604 0 1 0
768 256 2 -0.35 6.592640786777396 6.567203612806374 48.4354402161145 0 1 0
2390 797 2 -0.35 0.7811556171154556 2.699388663469936 45.518779237009355 0 1 0
1921 641 1 0.7 5.379437291583226 2.9911915219203107 51.210883781988635 0 1 0
5251 1751 1 0.7 9.156738861631005 4.58207639467851 49.129901868209465 1 1 0
5461 1821 1 0.7 4.6324935178549 9.855830146477114 49.3204585999807 1 1 0
1475 492 2 -0.35 1.7164106941690902 9.087106251596058 48.30371426276363 0 0 0
5252 1751 2 -0.35 8.115008069890234 4.070629852158065 49.07944257539558 1 1 0
1474 492 1 0.7 0.5941817518474156 9.226803168843519 48.167892131448916 0 0 0
6563 2188 2 -0.35 8.235733237131535 1.3246103611437545 49.89723612323884 1 1 0
6562 2188 1 0.7 9.040212960140659 0.5607376129607509 49.658568617450385 1 1 0
192 64 2 -0.35 11.444756015629967 7.909919061663491 47.143528368067265 0 0 0
6462 2154 2 -0.35 17.467369346586135 2.566392021690844 45.01726422804738 0 0 0
190 64 1 0.7 11.921424101555072 6.939438451657718 46.64501091627421 0 0 0
2688 896 2 -0.35 12.746088672454936 1.3836575261038189 46.94935484132519 0 0 0
2687 896 2 -0.35 14.061315578955133 2.6318077058973905 45.49513318450426 0 0 0
2686 896 1 0.7 13.403462697308923 1.997986857531677 46.19851917757661 0 0 0
459 153 2 -0.35 15.729186877006551 4.607949351177823 48.6082979948532 0 0 0
457 153 1 0.7 14.92238541081119 4.078616024322458 49.26238339340335 0 0 0
2040 680 2 -0.35 16.844509801269265 8.982445898839806 44.13127134936722 0 0 0
2039 680 2 -0.35 16.214815716027445 9.728047344419585 46.22168346322707 0 0 0
2038 680 1 0.7 16.562808772485795 9.363081338449472 45.170882590568475 0 0 0
2888 963 2 -0.35 19.14072999582104 2.430045694929501 47.7177782191829 -1 -4 0
2887 963 1 0.7 18.069936474108072 2.158675677927663 48.08565764507769 -1 -4 0
458 153 2 -0.35 14.117335027894269 3.6477821041601937 49.97737873431302 0 0 0
2889 963 2 -0.35 16.975316854665767 1.9169701411531666 48.40362403997621 -1 -4 0
670 224 1 0.7 18.189846366022042 6.464742487819441 48.1838296273352 0 0 0
191 64 2 -0.35 12.439038745425727 5.982484845602491 46.26768117877674 0 0 0
530 177 2 -0.35 11.25614035350338 2.3226874291092 50.26826296409123 0 0 0
6461 2154 2 -0.35 17.607092890062514 4.824859054767029 44.47380959565152 0 0 0
529 177 1 0.7 12.140765164513756 1.6988252891705757 50.69411600069504 0 0 0
1893 631 2 -0.35 12.956996743950322 6.847020069436356 49.34265961746968 0 0 0
6460 2154 1 0.7 17.525933407233858 3.7159375118153837 44.79463039110833 0 0 0
531 177 2 -0.35 13.029281913081817 1.0357725183908255 51.016093712071786 0 0 0
1891 631 1 0.7 12.375752883874549 7.2051751640157535 50.28606781343073 0 0 0
671 224 2 -0.35 17.510793267801436 6.877619743223475 47.337597916382876 0 0 0
5253 1751 2 -0.35 10.194983783062117 5.086686909161888 49.03444225532896 1 1 0
1892 631 2 -0.35 11.868113042146586 7.499727594999399 51.2692962602225 0 0 0
5379 1793 2 -0.35 9.342799260292693 0.7280588198389841 46.430213231229374 0 1 0
5000 1667 2 -0.35 16.30902685176901 8.035436825274173 49.92970897125123 0 0 0
4999 1667 1 0.7 15.699723453781868 7.417549428303999 50.71602375431365 0 0 0
573 191 2 -0.35 18.997252509094324 9.275065628229445 47.68480038879557 0 0 0
672 224 2 -0.35 18.881138247066996 6.049659018290514 49.0158672503062 0 0 0
1004 335 2 -0.35 2.406107498539583 14.931342372065174 43.74494372946077 0 0 0
1003 335 1 0.7 1.5918191968905548 14.262901122695425 44.241969272638315 0 0 0
1747 583 1 0.7 8.917993298936185 13.070625841952197 43.73214198990996 0 0 0
1748 583 2 -0.35 7.810493976414655 12.868099064096812 44.064090052332574 0 0 0
5463 1821 2 -0.35 4.944688669541176 9.84614645626198 48.20995731708854 1 1 0
1005 335 2 -0.35 0.864693157317905 13.5777298044864 44.815945852815254 0 0 0
764 255 2 -0.35 6.710053282986438 10.446854698609272 45.55883526006545 0 0 0
763 255 1 0.7 6.634956098472275 11.395485762236321 46.22846978135489 0 0 0
765 255 2 -0.35 6.447737306708195 12.346660055989176 46.88409280138016 0 0 0
5915 1972 2 -0.35 3.944691931510564 12.070547650836174 44.439267912478755 1 0 0
5914 1972 1 0.7 3.6252229784377974 12.256511024339884 45.513784463575796 1 0 0
5916 1972 2 -0.35 3.348379332688443 12.394221034889235 46.627141018953296 1 0 0
2026 676 1 0.7 3.453779308062319 15.105242374019523 47.54281241877134 0 0 0
2028 676 2 -0.35 2.439341808156845 15.247634878875738 46.944330217522015 0 0 0
7016 2339 2 -0.35 3.7509374552079895 13.14701110650664 50.95650432495567 -2 3 1
7015 2339 1 0.7 4.8581969187456036 13.275327815815388 50.626642114546044 -2 3 1
4740 1580 2 -0.35 5.000118288824243 14.805315454997952 45.1670911396415 0 0 0
4738 1580 1 0.7 4.982089035656702 15.539560786137347 44.278156045978385 0 0 0
4739 1580 2 -0.35 4.909043394107475 16.21717281576523 43.3423137361208 0 0 0
2027 676 2 -0.35 4.4308708653509274 15.05152805255306 48.173671036202634 0 0 0
5954 1985 2 -0.35 3.6717189034445754 19.073172654987385 49.06101640270959 1 0 0
4885 1629 1 0.7 6.2130760511014405 19.71577567247913 43.58526925511797 -2 0 1
4886 1629 2 -0.35 6.479026282794061 20.653469536497187 42.93982202136595 -2 0 1
4887 1629 2 -0.35 5.913372799291096 18.757804627664154 44.16647855636056 -2 0 1
6983 2328 2 -0.35 8.438689014160078 11.903295470508105 49.51891881147593 1 -4 1
4808 1603 2 -0.35 0.5236430106859888 15.04447963524644 49.06485867610407 0 0 0
6982 2328 1 0.7 8.84641560647668 12.847494005211605 48.9810000736748 1 -4 1
6984 2328 2 -0.35 9.282200861261611 13.768317702600442 48.43459756691484 1 -4 1
1513 505 1 0.7 7.277627931085997 16.8519035373779 49.97698215877169 0 0 0
4901 1634 2 -0.35 1.7808653409573152 18.334866507270647 45.416769429889 1 0 0
7017 2339 2 -0.35 6.0282861653366915 13.43086992625314 50.45117697659997 -2 3 1
1515 505 2 -0.35 6.315301195835763 17.127286908110385 49.35529940632324 0 0 0
5953 1985 1 0.7 4.270647767446483 19.440066988607025 49.974579784510176 1 0 0
4900 1634 1 0.7 2.0235529868802598 19.3737062903234 45.908793391615546 1 0 0
4902 1634 2 -0.35 2.3646645955999097 20.45364806954812 46.24468132833705 1 0 0
4449 1483 2 -0.35 1.3766223322508695 11.581300062257231 49.82240255268526 1 1 0
6191 2064 2 -0.35 9.408717355198744 18.412065241910575 45.012103344793736 0 0 0
1514 505 2 -0.35 8.16133952950716 16.576822968955703 50.636000789944845 0 0 0
4447 1483 1 0.7 1.0889779054619766 11.947146470308434 50.86738883718124 1 1 0
4807 1603 1 0.7 0.7424658252636664 15.908294029265779 49.82855859250259 0 0 0
1749 583 2 -0.35 9.992326397821905 13.266468141223374 43.432043858664755 0 0 0
5899 1967 1 0.7 15.485352201848999 19.863338525776587 42.004971703068534 0 0 0
5133 1711 2 -0.35 18.90810324997734 10.502539083581265 42.73914915169394 0 0 0
6190 2064 1 0.7 10.556889005856707 18.413342239849143 45.11617703992508 0 0 0
320 107 2 -0.35 15.859207656160997 11.922149247686036 44.14096558853282 0 0 0
6192 2064 2 -0.35 11.72461133314405 18.37966414440498 45.30143527762979 0 0 0
1133 378 2 -0.35 12.02846140298359 9.49664602773003 44.64071906358863 0 1 0
319 107 1 0.7 15.017377423371807 12.693110271728232 44.24163237677103 0 0 0
1134 378 2 -0.35 10.033442072758948 10.394927127364861 45.384875041746554 0 1 0
1132 378 1 0.7 11.039614032911842 9.976018495220458 45.039054866690414 0 1 0
3059 1020 2 -0.35 13.17697702408237 9.93026302709022 48.77103680864573 0 1 0
321 107 2 -0.35 14.149135081033242 13.386558560470004 44.46780376920845 0 0 0
3058 1020 1 0.7 12.437639196013999 10.697648657117663 48.24581327933188 0 1 0
3060 1020 2 -0.35 11.6079218129768 11.362883146413665 47.74854684374777 0 1 0
729 243 2 -0.35 14.665086026902754 18.40760160089409 45.69510118404702 0 0 0
6305 2102 2 -0.35 12.181415692330862 14.8917643759708 47.76452407135025 0 0 0
6306 2102 2 -0.35 10.430936965666413 15.809410167572203 46.53557773671951 0 0 0
6304 2102 1 0.7 11.337297518205716 15.339405292437176 47.117690549463624 0 0 0
2592 864 2 -0.35 18.07901797882247 15.021053098942595 46.22965079754045 0 0 0
727 243 1 0.7 14.556659876467508 17.31260403633938 46.046243235523036 0 0 0
2590 864 1 0.7 19.03831544814657 14.413693227180142 45.926486347719404 0 0 0
728 243 2 -0.35 14.545985679787634 16.200421563808646 46.40698448823022 0 0 0
1566 522 2 -0.35 18.19039399682704 17.270277994222397 48.78458215610936 0 0 0
1564 522 1 0.7 17.83919506036792 17.900307055439395 47.88932393346915 0 0 0
290 97 2 -0.35 10.793628965865995 18.674811762090904 48.350629660371496 0 0 0
289 97 1 0.7 11.370145752271512 19.62751617460928 48.70145489033101 0 0 0
1343 448 2 -0.35 14.416761079467673 12.261212601061358 47.3144269887404 0 0 0
1342 448 1 0.7 15.045062742127717 13.046164431789888 47.88116163285718 0 0 0
571 191 1 0.7 18.348131867878003 10.004373137768104 48.36090016516844 0 0 0
572 191 2 -0.35 17.698030476170192 10.799746404549174 48.89597632196019 0 0 0
5350 1784 1 0.7 0.6938213872125297 16.838455469255546 188.75922970168907 1 0 0
5901 1967 2 -0.35 16.533047574000584 20.324514877434243 41.75489986826351 0 0 0
1344 448 2 -0.35 15.66151307102732 13.837235661482348 48.408117079346425 0 0 0
1565 522 2 -0.35 17.62827100076788 18.556454266816242 46.93336533328844 0 0 0
4648 1550 1 0.7 18.895977678373853 14.152527276365303 50.11748736058163 0 0 0
261 87 2 -0.35 15.301853004472566 18.87080806683778 49.26107473734609 0 0 0
3402 1134 2 -0.35 12.532226016592 12.800800583843781 50.12473716209831 0 0 0
4649 1550 2 -0.35 17.939374415009812 13.879671213160076 50.71502624813762 0 0 0
3400 1134 1 0.7 11.917964737760194 13.733884267872103 50.39063610511443 0 0 0
4323 1441 2 -0.35 16.19595385560735 10.633088154749284 52.440195563163606 0 0 0
2013 671 2 -0.35 5.594466319192199 28.64642686996075 44.3225472811166 0 0 0
6701 2234 2 -0.35 4.084766688246238 26.07367449866532 42.78687262019686 1 0 0
2011 671 1 0.7 4.794868829281656 29.481505806442083 44.429525127321185 0 0 0
6902 2301 2 -0.35 10.408311997000077 21.23581849228081 42.481325764531555 -8 -1 0
4756 1586 1 0.7 7.844694203070982 21.25833829976587 50.30554271507981 1 0 0
5955 1985 2 -0.35 4.902269479776827 19.723303925895898 50.91553791126008 1 0 0
2192 731 2 -0.35 4.3657187055522675 23.43003213912523 47.490238552003156 -1 -1 0
1264 422 1 0.7 8.190011515016154 23.126648618710735 43.08985489292767 0 0 0
1266 422 2 -0.35 8.670255036256414 23.040571846041754 44.1580841692353 0 0 0
689 230 2 -0.35 2.387090148897494 22.242994987723517 49.36584540649048 0 0 0
690 230 2 -0.35 1.780077501953694 24.427308130778886 48.893665112105616 0 0 0
688 230 1 0.7 2.085156030763017 23.343010712837074 49.16198880579611 0 0 0
2193 731 2 -0.35 6.3673417540623145 22.311143318777866 47.93344315894116 -1 -1 0
2191 731 1 0.7 5.351883936540891 22.86054488152835 47.74395077216755 -1 -1 0
3065 1022 2 -0.35 5.983601271208304 26.1396620209047 46.74905323566363 0 0 0
3064 1022 1 0.7 6.536774725348462 27.158644502078204 46.85357462218529 0 0 0
3066 1022 2 -0.35 7.029682674346365 28.19772132738637 47.06695130045141 0 0 0
6885 2295 2 -0.35 1.5137786871195504 28.55719835731862 43.26559553891058 1 0 0
6883 2295 1 0.7 0.9051525667324295 27.58273041164109 43.328648199601254 1 0 0
6980 2327 2 -0.35 7.8223194330135115 25.1043765990468 48.7058384776579 -4 -1 1
6979 2327 1 0.7 8.687351165892876 24.657334184099724 49.35979852335451 -4 -1 1
6981 2327 2 -0.35 9.571469668626357 24.196931267205724 49.99150510432794 -4 -1 1
6702 2234 2 -0.35 6.200121976591952 25.336690326544353 43.349342559054186 1 0 0
6700 2234 1 0.7 5.151250776201763 25.64221299041856 43.10980924450354 1 0 0
4757 1586 2 -0.35 8.542496898592201 20.437329838866468 49.8609246503839 1 0 0
1889 630 2 -0.35 4.78424735514287 23.432454735564146 51.239952033714616 -1 0 0
1888 630 1 0.7 5.067174082041318 23.29035994502805 52.33818028052337 -1 0 0
6884 2295 2 -0.35 0.3407619291663563 26.58680605553533 43.32854541872659 1 0 0
2597 866 2 -0.35 1.3563028370771644 26.385270547960534 46.614524183423924 0 0 0
998 333 2 -0.35 9.718896780599241 23.093880688329914 47.257534378981674 0 0 0
999 333 2 -0.35 9.15869925494559 20.859824570224493 47.084613000508654 0 0 0
997 333 1 0.7 9.429070054395655 21.973311159718335 47.194913968420046 0 0 0
2725 909 1 0.7 5.108341463270269 27.059228627782737 51.404604573258545 -2 0 0
2726 909 2 -0.35 6.194813748734305 26.7621968964289 51.72092311470718 -2 0 0
2596 866 1 0.7 1.5559612267691034 26.919747768114746 47.64767718292148 0 0 0
2727 909 2 -0.35 4.021728796477776 27.3814009923513 51.119660187478345 -2 0 0
6921 2307 2 -0.35 0.31246735635248046 21.21007246213368 43.53416968797879 0 -1 0
6941 2314 2 -0.35 10.614944534722945 29.472982323179465 46.305985786906625 -2 1 0
3464 1155 2 -0.35 13.940078449310015 28.56482312457603 45.578008551408686 0 0 0
3326 1109 2 -0.35 17.56877753350208 22.62953364966399 43.509668798805144 0 0 0
3327 1109 2 -0.35 16.10176151479471 21.295200513554548 44.6799007816338 0 0 0
291 97 2 -0.35 11.859680489694817 20.65956684693141 48.90664423215124 0 0 0
3325 1109 1 0.7 16.845561485731505 21.984035273148116 44.1256421279385 0 0 0
3463 1155 1 0.7 13.101739565530535 27.946605309094647 45.05408510549921 0 0 0
3465 1155 2 -0.35 12.168857699501476 27.39508735716889 44.57456703046395 0 0 0
2720 907 2 -0.35 14.453456766889751 21.913973484052846 47.216262711248504 0 0 0
7046 2349 2 -0.35 10.60390722932482 26.170879039099333 46.52104606686826 6 -6 1
322 108 1 0.7 17.271048097460838 28.947563229298172 48.93402015176925 0 -1 0
323 108 2 -0.35 16.81258539831805 29.099342550090007 50.004597949291195 0 -1 0
324 108 2 -0.35 17.717748471827534 28.890061212878074 47.87634502590294 0 -1 0
7047 2349 2 -0.35 8.861071407510366 25.7826882137957 45.03654982418277 6 -6 1
7045 2349 1 0.7 9.724212537627853 25.982842031474668 45.79479188415193 6 -6 1
3172 1058 1 0.7 17.36846987131022 29.977592570985653 43.41635888281474 0 0 0
3173 1058 2 -0.35 17.014792514902336 29.237997366440545 42.629276329760884 0 0 0
259 87 1 0.7 15.177238497968359 19.971640828755746 49.60256789678533 0 0 0
2721 907 2 -0.35 12.916484661848637 21.520549544515518 45.505450940568586 0 0 0
2719 907 1 0.7 13.684520347335145 21.643471169012226 46.39784213320086 0 0 0
2661 887 2 -0.35 16.80080800287321 26.15572764542715 52.03180566229492 0 -1 0
5707 1903 1 0.7 15.403702096423476 25.71818425045663 48.43473720924709 0 0 0
5708 1903 2 -0.35 14.554850957440058 26.000006791373146 49.193846941255416 0 0 0
5709 1903 2 -0.35 16.324080285667577 25.47082031286577 47.768615709774195 0 0 0
354 118 2 -0.35 18.16975374474543 21.49025981448347 48.73489667660734 0 -1 0
352 118 1 0.7 17.73910761839393 22.199121393981464 47.93228181755488 0 -1 0
353 118 2 -0.35 17.321574735779176 22.887155974288188 47.08918387994773 0 -1 0
441 147 2 -0.35 15.286297179322965 30.55425772769199 47.63329489319276 0 0 0
439 147 1 0.7 14.362737092059572 31.243935135855345 47.66180673491766 0 0 0
260 87 2 -0.35 15.08004567134089 21.078676386924236 49.91911463143322 0 0 0
6985 2329 1 0.7 12.522826906744571 27.61863192095626 50.01009538865597 -3 -3 1
6986 2329 2 -0.35 12.569026026003286 27.086405257777486 51.063363174758265 -3 -3 1
6987 2329 2 -0.35 12.474181297591082 28.08389038589239 48.95455067074364 -3 -3 1
2464 822 1 0.7 19.398128945170434 25.180781577650826 44.62074983008839 0 0 0
2465 822 2 -0.35 18.908075527625716 26.006202399296846 43.952224800825164 0 0 0
3600 1200 2 -0.35 18.73411789899838 25.18807443598963 50.121746321793864 0 0 0
3598 1200 1 0.7 19.037600801550845 26.33211660712794 50.18857958579326 0 0 0
3599 1200 2 -0.35 19.362407483855083 27.434798257694215 50.27489894092929 0 0 0
6097 2033 1 0.7 19.47718701426211 20.76364152727735 191.42244326169705 0 0 0
4200 1400 2 -0.35 2.642378054977402 1.0788563500987332 47.605394174111446 1 1 0
2012 671 2 -0.35 4.047861197397466 30.325408670451903 44.68214011904223 0 0 0
3150 1050 2 -0.35 5.328243958077692 36.89887243390136 46.13277934148161 0 -1 0
364 122 1 0.7 8.699426182029104 32.45146058329891 44.82624536704506 0 0 0
366 122 2 -0.35 8.36946379850476 32.63587219831605 43.73075347329391 0 0 0
2553 851 2 -0.35 6.516698767160475 29.650094973781037 49.92822383963341 0 0 0
365 122 2 -0.35 8.938196065381694 32.447393568496565 45.94382886734026 0 0 0
2551 851 1 0.7 6.395816097515006 30.607816142696095 49.24251730943351 0 0 0
2109 703 2 -0.35 1.3727117504512878 31.468527224235917 50.52046218218106 1 -1 0
3149 1050 2 -0.35 3.9497042978549564 38.50924064646052 45.163860585660444 0 -1 0
639 213 2 -0.35 7.366012928455394 39.992702093188555 43.108984831974745 0 0 0
637 213 1 0.7 7.349339429923429 39.427763448582354 42.11416386224585 0 0 0
6390 2130 2 -0.35 7.722537015091612 36.29884552509944 43.86185073948869 1 0 0
3148 1050 1 0.7 4.630337680073628 37.6666591594794 45.60263660960644 0 -1 0
2552 851 2 -0.35 6.157267266934881 31.54212674202011 48.594310407887434 0 0 0
277 93 1 0.7 4.154940589144408 34.15879957527401 44.09062191941165 0 -1 0
279 93 2 -0.35 4.5339055549462675 33.86826999420913 43.01321738312913 0 -1 0