LAMMPS data file via write_data, version 29 Aug 2024, timestep = 4000000, units = real

7050 atoms
2 atom types
4700 bonds
1 bond types
2350 angles
1 angle types

0 40 xlo xhi
0 40 ylo yhi
0 240 zlo zhi

Masses

1 12.0107
2 15.9994

Pair Coeffs # lj/cut/coul/long/omp

1 0.0536545 2.8
2 0.156989 3.05

Bond Coeffs # harmonic/omp

1 1028.27 1.16

Angle Coeffs # harmonic/omp

1 55.96 180

Atoms # full

1571 524 2 -0.35 8.479867793777647 6.36320399440978 1.1641286765540193 0 1 1
1570 524 1 0.7 8.628234883467309 6.9719571540246115 2.1365493280194285 0 1 1
6681 2227 2 -0.35 1.6438376583396472 4.727845232583742 7.0121329106420704 2 -1 1
6679 2227 1 0.7 2.2908921978149 4.357205396336431 6.126886754053433 2 -1 1
6680 2227 2 -0.35 2.8942073937474437 4.01779027411459 5.182549111576903 2 -1 1
684 228 2 -0.35 5.521868744999594 4.122095632350058 6.2026859919986785 1 -1 0
682 228 1 0.7 6.242433556667906 4.912888244706142 5.731305457883887 1 -1 0
683 228 2 -0.35 7.023241261423586 5.6969629511097954 5.295732322875818 1 -1 0
2782 928 1 0.7 9.018886426409974 2.8706915661804637 3.204382442912769 2 0 0
1630 544 1 0.7 2.0749282964362408 8.689845556863343 4.037341641425572 0 0 0
1572 524 2 -0.35 8.895260710754744 7.5246497285794876 3.152073167299211 0 1 1
1362 454 2 -0.35 6.293553946603536 7.1675521636474615 7.726224467903846 3 2 1
1631 544 2 -0.35 2.2765146980200694 8.839461039146968 2.893649768560638 0 0 0
6666 2222 2 -0.35 5.333665719844899 8.099843768525481 4.930031656186432 0 2 1
2784 928 2 -0.35 8.241823348289259 3.6046262838848078 3.6815080594470877 2 0 0
6664 2222 1 0.7 5.724742100240609 8.637532855612738 4.006372179142846 0 2 1
1956 652 2 -0.35 6.199424193026691 2.322150696676694 1.270109769493386 2 1 0
1954 652 1 0.7 5.981340650413881 1.1916006456872548 1.1686770954018018 2 1 0
3255 1085 2 -0.35 2.9481263883901554 1.559875308122305 1.6052044640270373 1 0 1
3374 1125 2 -0.35 4.4222003922568165 4.80317910953829 0.7426781576755144 -1 -1 1
3373 1125 1 0.7 4.972316607589993 5.554775256776587 1.4333432367725283 -1 -1 1
1955 652 2 -0.35 5.8619675042258335 0.06798224214959543 0.9771974320960051 2 1 0
3253 1085 1 0.7 2.3787848026481457 2.5635301370895425 1.8300856672760684 1 0 1
3375 1125 2 -0.35 5.518746364541759 6.30236642508857 2.1224527160234667 -1 -1 1
2783 928 2 -0.35 9.775631511671566 2.083033381983781 2.765153129414658 2 0 0
6665 2222 2 -0.35 5.976487460195257 9.123368029745665 3.010280003617166 0 2 1
3427 1143 1 0.7 6.0226766197415085 1.3838879755396696 8.094455335436871 -6 1 1
3429 1143 2 -0.35 5.059016087605189 0.8251716986840679 7.781314227024651 -6 1 1
1620 540 2 -0.35 9.579266901364216 7.372788287939105 6.364958217256396 -5 -1 1
1632 544 2 -0.35 1.926843763140268 8.637746018012873 5.1877613831480875 0 0 0
3560 1187 2 -0.35 2.2198302761491036 1.6959516235675507 6.951146969896399 2 -1 1
3559 1187 1 0.7 2.0049561947205135 0.6796857985702897 7.455133119235792 2 -1 1
1360 454 1 0.7 6.476530471806399 8.276483859494006 7.9339259233464725 3 2 1
1361 454 2 -0.35 6.652606003450342 9.395674876477475 8.177640871720806 3 2 1
3254 1085 2 -0.35 1.7474111874552454 3.499567957294797 2.038014427396187 1 0 1
1581 527 2 -0.35 9.583617427267225 2.0743323919426806 6.1998294897401 -3 -1 1
1618 540 1 0.7 9.961766870975651 6.331895556041673 6.055765412279283 -5 -1 1
1579 527 1 0.7 9.88463988758786 1.948118617158372 7.31776323521957 -3 -1 1
1580 527 2 -0.35 10.124221154920432 1.9036587088932713 8.454936686079474 -3 -1 1
3428 1143 2 -0.35 7.015069955835083 1.9841042562419806 8.342198855026808 -6 1 1
6501 2167 2 -0.35 0.8569829984453099 7.139432843305409 0.21350716044054743 1 1 0
6499 2167 1 0.7 1.9707214800731265 7.510525680029339 0.1803494738469519 1 1 0
6500 2167 2 -0.35 3.051394997663752 7.8850110129016615 0.18781736959101636 1 1 0
332 111 2 -0.35 0.3862426508560478 8.001663753973268 7.788049135787763 2 0 0
516 172 2 -0.35 0.0818866221075254 5.807892180499705 3.4335376896702146 -1 -1 0
1413 471 2 -0.35 18.631970902926582 1.9896271506465626 5.286156300433615 -1 0 0
1412 471 2 -0.35 17.360841822889924 3.0612813562149666 6.879701360084563 -1 0 0
1411 471 1 0.7 18.01127944096149 2.563467223736014 6.068734979548023 -1 0 0
1619 540 2 -0.35 10.460358301794697 5.319627384239679 5.814950022291936 -5 -1 1
824 275 2 -0.35 18.925037057836917 2.4879353350944613 1.7854726515464974 0 -1 1
2650 884 1 0.7 14.131372529539705 6.06252691844708 7.615229997629612 0 1 1
2652 884 2 -0.35 15.199088837716692 5.890736833189321 7.199590046528785 0 1 1
4746 1582 2 -0.35 19.738842952250174 5.185737655920679 4.198453036963236 0 1 1
4744 1582 1 0.7 19.4334770317995 5.68640907926407 3.2081801411099304 0 1 1
4745 1582 2 -0.35 19.23238521902547 6.154659574935463 2.149823216953347 0 1 1
1987 663 1 0.7 15.766534928453158 5.142951528281329 2.2404811306875345 -1 -1 1
1988 663 2 -0.35 16.49319536441125 4.557195717040718 2.9313851066227787 -1 -1 1
5009 1670 2 -0.35 12.906367482880448 3.2977836745362907 3.9129780702761545 0 -1 0
5008 1670 1 0.7 13.192032070530876 2.177838929749673 3.7319236534607336 0 -1 0
2651 884 2 -0.35 13.034327572670428 6.32349901370525 7.935275640418324 0 1 1
5010 1670 2 -0.35 13.441777430206162 1.0791229124406467 3.502714340639557 0 -1 0
823 275 1 0.7 19.40592286855769 2.2350652276314333 0.7870632279505381 0 -1 1
789 263 2 -0.35 11.558988621519354 4.146069574227931 0.6760786742597193 -1 1 1
787 263 1 0.7 12.575021054362805 3.6763330212464487 0.4054756453449103 -1 1 1
2514 838 2 -0.35 16.03415993307263 0.5486366769921944 1.1703003270505057 0 1 1
1989 663 2 -0.35 15.013866471640668 5.75911990154219 1.5784686377207038 -1 -1 1
788 263 2 -0.35 13.598314265812963 3.2346820895949 0.18840876177548752 -1 1 1
5575 1859 1 0.7 14.531163642986098 8.308754728901398 3.5552848804430783 0 3 1
2582 861 2 -0.35 18.34276788946577 5.935127419953891 7.271793872837598 -2 0 1
2581 861 1 0.7 18.526272601289914 6.7041983706417945 6.394901626552484 -2 0 1
2512 838 1 0.7 15.546627853910744 0.7401997867378952 0.15997780377267626 0 1 1
2583 861 2 -0.35 18.723637353628106 7.512014271879873 5.610476531660945 -2 0 1
5576 1859 2 -0.35 13.441110358350246 8.562514678296907 3.366273669737336 0 3 1
5577 1859 2 -0.35 15.653378206007694 8.071902084340985 3.6510940937583762 0 3 1
3494 1165 2 -0.35 12.728031552602792 8.436808686064175 6.187399242467413 1 -1 0
4052 1351 2 -0.35 15.585797822730154 0.748373153453396 6.062119676697469 2 0 1
3493 1165 1 0.7 12.868607810362827 9.596848675382063 6.270368000097636 1 -1 0
121 41 1 0.7 16.90117109588539 8.970757850123393 7.986357259007249 0 0 1
4431 1477 2 -0.35 15.61700758068124 9.027589941124727 0.7682457978640107 2 -1 0
122 41 2 -0.35 15.867801293887293 8.885959299557008 7.472100278956557 0 0 1
4051 1351 1 0.7 14.654815383931396 0.03699576217161957 6.130687306059983 2 0 1
1820 607 2 -0.35 12.181188800326213 8.061528177177564 0.8139145083537642 0 0 0
4429 1477 1 0.7 16.51854024900975 9.486306863545236 0.1903333794789225 2 -1 0
3687 1229 2 -0.35 4.887366605814039 11.297006144079102 0.21439600311013265 2 -2 0
1333 445 1 0.7 8.857265950963743 10.301808811067124 5.249378764466465 2 3 1
3686 1229 2 -0.35 6.927691553850846 11.519287645261642 1.2927556765684094 2 -2 0
3685 1229 1 0.7 5.914784171705278 11.392361306143897 0.7598089773151896 2 -2 0
3563 1188 2 -0.35 4.169361848567603 11.077217342506838 5.73070919669778 1 0 0
3562 1188 1 0.7 3.449469285524813 11.868805728503936 6.185611305142986 1 0 0
3564 1188 2 -0.35 2.7168826330013425 12.73657277125438 6.497410120833605 1 0 0
148 50 1 0.7 4.932317612907806 14.333989704013986 0.7164657953435193 1 1 1
6050 2017 2 -0.35 1.3561881013122559 14.013483964004777 3.6180224641818497 -1 0 1
5451 1817 2 -0.35 1.2531945071870412 17.84148314883953 3.295467127754131 3 -3 0
1335 445 2 -0.35 7.742709082225016 10.207848220578972 5.6060794002221614 2 3 1
4438 1480 1 0.7 8.613832321297057 14.71205912159097 5.166342348538775 -1 1 0
6051 2017 2 -0.35 2.916979699196692 12.358899619587502 3.3119927686941106 -1 0 1
6049 2017 1 0.7 2.1334072358122818 13.183499043456735 3.4456708654744514 -1 0 1
5449 1817 1 0.7 0.24086905557960425 17.35197779731644 3.5116963701619532 3 -3 0
149 50 2 -0.35 4.903032685079751 13.958283697699947 1.802831618029496 1 1 1
3024 1008 2 -0.35 6.160878788066309 18.826131323825933 4.836958872687273 1 -1 0
1027 343 1 0.7 9.547271497021473 13.029653699582715 8.375491972198114 -1 -1 0
5879 1960 2 -0.35 2.303409390106358 18.081788990375564 7.625070920273563 1 0 0
5878 1960 1 0.7 1.3035673896685616 18.320402199368836 7.0610870515595785 1 0 0
3022 1008 1 0.7 5.994970256716472 17.861184301959515 5.470814085850343 1 -1 0
5880 1960 2 -0.35 0.35677074816833076 18.532303235357006 6.41649163353582 1 0 0
3023 1008 2 -0.35 5.674674501692286 16.885981827494085 6.013254499255349 1 -1 0
4440 1480 2 -0.35 8.064255794855315 15.551349547008922 4.575962774975238 -1 1 0
4439 1480 2 -0.35 9.159059539023573 13.884995812502929 5.813075381087787 -1 1 0
449 150 2 -0.35 9.880751945212808 18.32710615752644 4.5648705482657315 -1 0 1
2149 717 1 0.7 9.22088273154738 16.860735464927888 0.5233381682171624 1 0 1
448 150 1 0.7 9.393345048835391 19.355767549949498 4.667033696280752 -1 0 1
2151 717 2 -0.35 8.53415877342676 16.98483320489982 1.4872909478400027 1 0 1
1694 565 2 -0.35 4.307917345477809 17.04754730981331 1.8903008667372423 1 0 0
1693 565 1 0.7 4.826151067713765 17.93665014666434 1.3571538317144602 1 0 0
3225 1075 2 -0.35 9.818135635396716 10.234288807053877 1.387238813911576 -2 1 1
2677 893 1 0.7 5.825543163304468 12.30366766844367 8.570485227928387 3 -1 0
2678 893 2 -0.35 6.730935997978125 12.699288208258888 7.9739059504253476 3 -1 0
1695 565 2 -0.35 5.363672646937 18.73685096686326 0.7183665559926127 1 0 0
5141 1714 2 -0.35 0.49347855970214693 10.300584003887751 0.6143165116102911 1 1 0
1334 445 2 -0.35 9.97789976701239 10.220969610202086 4.938957040139866 2 3 1
1028 343 2 -0.35 9.794736960217426 11.94795379851617 7.9767694179288755 -1 -1 0
4079 1360 2 -0.35 9.975572286527994 13.647148004315486 2.4317544491451835 2 -1 0
3340 1114 1 0.7 0.5098312338850823 14.456552847420642 8.080266256670837 0 -2 0
3341 1114 2 -0.35 0.9325968433478965 15.295378268154403 7.360837849499391 0 -2 0
4208 1403 2 -0.35 17.788775088892535 10.56445192280107 5.552559221500245 1 1 0
4207 1403 1 0.7 18.231308534477712 10.343948688353983 4.503718753410569 1 1 0
4209 1403 2 -0.35 18.583463408409013 10.13641083658041 3.4102997674956366 1 1 0
262 88 1 0.7 17.080370351004795 16.92723541292206 3.7255828045274364 0 2 0
264 88 2 -0.35 16.655263154363922 17.749754156689022 4.3952309277606085 0 2 0
263 88 2 -0.35 17.5552190805437 16.09885418473171 3.085412306321792 0 2 0
386 129 2 -0.35 16.67849342693568 13.089627586538306 8.148360985595028 1 1 1
4584 1528 2 -0.35 19.519774496403002 16.213907657805102 5.576507614545479 1 0 1
4326 1442 2 -0.35 13.680166563043876 13.413647662219548 2.1323801521673316 1 0 0
4324 1442 1 0.7 13.946925530189354 12.444672281167898 2.6988844324150123 1 0 0
385 129 1 0.7 16.26248228663914 13.079057114225435 7.060329590840271 1 1 1
4078 1360 1 0.7 10.642963836616936 14.551766367191599 2.804694630033596 2 -1 0
4920 1640 2 -0.35 17.61585074054277 12.872966134975918 2.4897281767688333 3 4 1
4325 1442 2 -0.35 14.278534199281761 11.55016514357851 3.3368810414216474 1 0 0
387 129 2 -0.35 15.794295025613536 13.060035004228672 5.986478163359931 1 1 1
4918 1640 1 0.7 17.985048292905685 13.18292507156964 3.5560505167308474 3 4 1
4919 1640 2 -0.35 18.411617587019382 13.434996330303921 4.5819053938041145 3 4 1
4080 1360 2 -0.35 11.356529726499438 15.412783118174653 3.070236002764253 2 -1 0
3495 1165 2 -0.35 13.012462077473199 10.758161378409989 6.426432039517806 1 -1 0
4215 1405 2 -0.35 12.12075492453236 16.313125975926262 6.144533853188241 3 0 0
4213 1405 1 0.7 12.735384888102828 17.088957008775175 5.525162684758255 3 0 0
4214 1405 2 -0.35 13.426738676411048 17.907692116976325 5.044914814036347 3 0 0
3288 1096 2 -0.35 13.736778296683326 13.626947005060321 8.286853997636884 0 -2 1
3223 1075 1 0.7 10.891474426113618 10.723290121939858 1.4309069840815205 -2 1 1
3224 1075 2 -0.35 11.884590578604065 11.31250229557368 1.5298705534406813 -2 1 1
4487 1496 2 -0.35 14.555394916829822 16.69277125215448 1.9982273202784453 -1 0 1
4488 1496 2 -0.35 12.9848502956066 15.907249320466743 0.44783899266709826 -1 0 1
4486 1496 1 0.7 13.767580526478868 16.31378625406915 1.200960475608647 -1 0 1
6165 2055 2 -0.35 14.46389667077784 19.676561035338427 2.844717439369366 1 2 1
5471 1824 2 -0.35 17.03918659152241 18.49880696242416 7.161395813373045 1 3 1
5470 1824 1 0.7 17.42515468626327 19.401409177242538 7.764497094790821 1 3 1
1601 534 2 -0.35 17.490947260656224 17.733874913096066 0.7429101946338106 0 -1 1
6887 2296 2 -0.35 20.296074705712957 18.26988701041856 3.627848312152064 -1 0 1
813 271 2 -0.35 20.344642606133494 11.400160447212116 0.6479729423148476 0 3 1
74 25 2 -0.35 6.936648434240704 20.773361712230155 7.799427660064952 -1 0 1
73 25 1 0.7 5.998533189857755 21.177968429037097 8.35423755527227 -1 0 1
1454 485 2 -0.35 8.322873448328036 20.218782572774835 1.5067407546051608 -1 1 1
450 150 2 -0.35 8.98994584047658 20.44346775291961 4.7531365461469335 -1 0 1
5958 1986 2 -0.35 1.5087662058353455 21.384000114125563 0.23836875324228965 1 0 0
5956 1986 1 0.7 2.316320642087307 20.927856448582954 0.9341562578449355 1 0 0
6215 2072 2 -0.35 2.9811806301194803 25.88278494178536 4.573822578817762 3 3 1
6214 2072 1 0.7 3.5821642915326466 25.96518819317536 5.569377594725449 3 3 1
6216 2072 2 -0.35 4.0893330776221015 25.963533670583644 6.620259847773427 3 3 1
857 286 2 -0.35 7.427678946394305 28.62916704360761 7.223209418737219 0 1 0
1212 404 2 -0.35 8.026410219741612 23.6943848852035 5.560934053953586 1 -2 0
1211 404 2 -0.35 6.329666288254857 22.10740383965416 5.489745946344419 1 -2 0
1210 404 1 0.7 7.153949902911258 22.933482982373828 5.512502822637013 1 -2 0
2105 702 2 -0.35 3.4059656100551 22.51335719752764 4.672977848283441 -2 0 1
1311 437 2 -0.35 1.5670291039674 24.10503197228499 6.6761618431694085 -2 0 0
3634 1212 1 0.7 0.6975755806987182 25.038523533990453 3.19536922741971 1 0 1
2104 702 1 0.7 3.4021320511084525 21.441898345481036 5.078799419541513 -2 0 1
2106 702 2 -0.35 3.3330056435097815 20.38766736655132 5.533171006695156 -2 0 1
5957 1986 2 -0.35 3.076933050773236 20.397467964332566 1.6789556014128688 1 0 0
856 286 1 0.7 6.837481936916161 28.09017273451891 6.360099096789127 0 1 0
858 286 2 -0.35 6.286243269563219 27.52265182969773 5.526558375261067 0 1 0
1064 355 2 -0.35 5.557280674222628 24.524391503176204 2.868074503442607 -1 1 1
5680 1894 1 0.7 8.691723874660001 25.748409630398097 0.92956690525534 0 2 1
1063 355 1 0.7 4.742968913348836 24.083488410633052 2.169557319554004 -1 1 1
5681 1894 2 -0.35 8.330116812253948 25.964886085514113 2.0394590738218525 0 2 1
1065 355 2 -0.35 3.870252675773016 23.736603340151138 1.5175330295490788 -1 1 1
1594 532 1 0.7 3.5017865284103964 28.122889813523816 1.6938378880144442 0 -1 0
1596 532 2 -0.35 4.121818423939578 27.177620848337007 1.503739402827145 0 -1 0
3636 1212 2 -0.35 0.8116331454353021 25.954152375455397 2.531827010249289 1 0 1
714 238 2 -0.35 6.944630969612682 25.713122607285484 8.524881866539085 2 -2 0
4212 1404 2 -0.35 7.005769880118901 28.532684735606843 1.733155385581339 2 -2 0
1595 532 2 -0.35 2.909106493673655 29.12730147584762 1.7590003362918512 0 -1 0
1453 485 1 0.7 7.71144300182924 21.059214008316257 2.039853570804123 -1 1 1
1455 485 2 -0.35 7.0605998400606795 21.821844211371758 2.6025533978039084 -1 1 1
1410 470 2 -0.35 9.628945533016424 27.824721736244484 4.226055108068135 0 -3 0
4210 1404 1 0.7 6.682243611630014 29.30432124822568 2.5139865639841013 2 -2 0
1309 437 1 0.7 0.8519956659360816 23.27582689481058 6.960757429677743 -2 0 0
1310 437 2 -0.35 0.15920195741170515 22.329074299333357 7.128106256181512 -2 0 0
6485 2162 2 -0.35 2.2284770198469817 28.889823877894607 5.235649775898296 2 -3 0
6484 2162 1 0.7 1.8849238984128658 29.83466206419667 4.641631008695557 2 -3 0
3635 1212 2 -0.35 0.5338032734870001 24.02691851219746 3.7190564513402573 1 0 1
1408 470 1 0.7 10.13010643896233 26.80353384395513 4.447899207982184 0 -3 0
2331 777 2 -0.35 9.90456935109124 23.0392211219702 1.4781520768074383 -1 1 1
3098 1033 2 -0.35 14.975122884396875 22.17204484926244 8.360929041620635 0 -4 0
6164 2055 2 -0.35 12.614125227804156 21.03058122202277 3.230882558283355 1 2 1
2813 938 2 -0.35 19.371999866834475 21.2637298410317 1.8228035051648896 0 0 1
3390 1130 2 -0.35 16.455338504015295 21.938924923228793 3.8070567629082444 -2 0 1
6163 2055 1 0.7 13.54528659310539 20.343258651532643 3.051642671382079 1 2 1
3000 1000 2 -0.35 11.605338518606878 20.21906063376599 6.434715850204753 2 0 0
2998 1000 1 0.7 11.927185119020216 21.332032721041656 6.454473247067695 2 0 0
2999 1000 2 -0.35 12.232753050265817 22.43777356117009 6.403305579305178 2 0 0
3099 1033 2 -0.35 15.836508749820473 24.361708745303563 8.241344303769722 0 -4 0
3097 1033 1 0.7 15.377367854612247 23.282350346377847 8.253434219289682 0 -4 0
2049 683 2 -0.35 13.43664208419189 23.855591270048265 3.748026422947898 1 1 1
2047 683 1 0.7 13.43871256650196 24.76575260518031 4.456425390660026 1 1 1
2708 903 2 -0.35 15.259621464138904 29.87849589367784 2.4252168300124968 0 0 0
3388 1130 1 0.7 16.037481429409134 21.516874875290696 4.798477136951156 -2 0 1
3389 1130 2 -0.35 15.670112366173527 21.173817186629446 5.816292750776123 -2 0 1
2048 683 2 -0.35 13.591661777809616 25.677098669787078 5.132474127982715 1 1 1
786 262 2 -0.35 18.70474204139915 25.68089306691723 5.012963260800351 1 0 1
784 262 1 0.7 17.637783228910486 25.527573141741048 4.580545281994596 1 0 1
1409 470 2 -0.35 10.623513470867028 25.770787030753127 4.616623043900981 0 -3 0
785 262 2 -0.35 16.57792823938984 25.38501567667847 4.143953364359292 1 0 1
4283 1428 2 -0.35 11.561271655780054 26.60317294306218 1.25325217380302 1 0 0
5639 1880 2 -0.35 17.20912728796897 26.915134565233284 1.5641093378357231 0 0 1
6001 2001 1 0.7 18.769107672485827 21.784340832630363 5.328574500169308 -3 0 1
3189 1063 2 -0.35 14.57024568662537 28.18153788035793 6.2764126241832034 0 -2 0
3187 1063 1 0.7 14.1527139553428 27.7599698583205 7.266120421856567 0 -2 0
5638 1880 1 0.7 17.086295707803984 27.656175588780343 0.6781681488698588 0 0 1
5851 1951 1 0.7 11.766953932089795 24.758225194521284 7.934125031198585 -1 -1 0
5853 1951 2 -0.35 10.806326605954453 24.836192702386086 7.284718130796618 -1 -1 0
4284 1428 2 -0.35 13.737126720632853 27.335447575498616 1.6429882756025187 1 0 0
4282 1428 1 0.7 12.64850250348248 26.980802825139776 1.4801084346277327 1 0 0
6003 2001 2 -0.35 18.633022644753947 22.926774702693674 5.52697561821822 -3 0 1
2812 938 1 0.7 20.093054398948368 21.53127467409451 0.9698669997805425 0 0 1
6002 2001 2 -0.35 18.923212153411512 20.638154781121735 5.135014504155233 -3 0 1
3887 1296 2 -0.35 19.952486089247387 28.90325005270515 7.689020899978852 0 -2 0
3188 1063 2 -0.35 13.745588251983683 27.369092825927087 8.265339467388038 0 -2 0
6737 2246 2 -0.35 15.17277625967015 23.8079858038523 1.2127877662200381 -1 0 0
6736 2246 1 0.7 15.772487637736836 23.008489219300692 0.6403381147146153 -1 0 0
6738 2246 2 -0.35 16.393230236079784 22.149726125674135 0.13914051882978587 -1 0 0
2337 779 2 -0.35 19.84840349395607 24.565102301493592 0.06381612009248468 0 0 1
3886 1296 1 0.7 19.554662640616122 29.883230117415827 7.181478107548157 0 -2 0
5472 1824 2 -0.35 17.75906659868003 20.349568009133424 8.318863562176382 1 3 1
2329 777 1 0.7 10.728796849899538 22.458667058486775 0.9026596424118956 -1 1 1
2330 777 2 -0.35 11.609197900809814 21.849234538077088 0.4735925211138939 -1 1 1
2888 963 2 -0.35 20.33112246220826 25.056691917912563 7.679080786935233 0 -5 0
3561 1187 2 -0.35 1.7872897507073426 39.76229536773624 8.145944004290163 2 -2 1
4211 1404 2 -0.35 6.324526428363395 30.181386621773186 3.150930229385946 2 -2 0
6939 2313 2 -0.35 5.746347492238344 39.543142981466076 4.021333820340721 1 1 0
6937 2313 1 0.7 4.761094667808318 39.52522203820749 4.616158197869698 1 1 0
3353 1118 2 -0.35 8.515738484727049 39.16175086940769 3.315309149508227 1 0 0
6938 2313 2 -0.35 3.7378219799671966 39.54836217556681 5.129263253620812 1 1 0
4974 1658 2 -0.35 6.185554027496876 31.517986208197662 6.209357431974265 1 1 1
4973 1658 2 -0.35 3.946761671031285 31.04199786687531 5.865247459811427 1 1 1
3859 1287 1 0.7 3.1906289483368067 33.64089780502171 2.566001044961133 2 3 0
6300 2100 2 -0.35 4.189011605521582 36.468272778808654 5.40092696244135 1 0 1
3352 1118 1 0.7 8.212824136071387 38.25497776294037 2.6668302257207572 1 0 0
4972 1658 1 0.7 5.056507208089353 31.338802990894443 6.0295843585101405 1 1 1
3354 1118 2 -0.35 7.863928906937957 37.303154646385536 2.088858459701367 1 0 0
3861 1287 2 -0.35 3.2539911189469928 34.313779883676375 3.5033947113065986 2 3 0
3264 1088 2 -0.35 9.094652588326749 34.4630594456834 3.243802271227337 1 -1 0
3262 1088 1 0.7 8.887181599037117 35.25801047087749 4.056588995920693 1 -1 0
3263 1088 2 -0.35 8.542926514774773 36.004061426103256 4.870436239605349 1 -1 0
6299 2100 2 -0.35 5.426357479208859 34.514703346211235 5.567211872566476 1 0 1
6298 2100 1 0.7 4.801892888849537 35.487673999297854 5.439919583894427 1 0 1
4863 1621 2 -0.35 4.033043645217748 36.71027420760423 1.8228463915530793 0 0 1
3860 1287 2 -0.35 3.1926633318813935 33.0553416774768 1.5753348893175771 2 3 0
4861 1621 1 0.7 3.3860500888697547 37.62502031130964 2.1539165696632034 0 0 1
4862 1621 2 -0.35 2.7373654185536234 38.52758117876619 2.4769670386173375 0 0 1
718 240 1 0.7 7.025701250368828 33.09526406449186 1.8396894250798994 -1 -2 1
6486 2162 2 -0.35 1.4317104918596855 30.738784797652215 4.051565962645639 2 -3 0
720 240 2 -0.35 6.465172134819945 33.49331505535527 2.774078043604052 -1 -2 1
608 203 2 -0.35 9.000516974085839 30.839283248544795 4.265924475072092 -7 -4 0
1626 542 2 -0.35 8.7890733611154 32.874984001377115 8.018220932206 0 -1 1
607 203 1 0.7 9.663574551501126 31.155448971980576 3.3272471503883585 -7 -4 0
6707 2236 2 -0.35 7.576108021859614 38.51791975720693 6.806341221720693 2 -3 0
1624 542 1 0.7 7.693430812943577 33.33259991111598 8.096822825168422 0 -1 1
6506 2169 2 -0.35 5.146506511849135 36.18717273266423 8.156459881250852 -1 0 0
1401 467 2 -0.35 2.1986185742712485 33.497800258597586 6.541913380566032 -1 0 1
5192 1731 2 -0.35 0.3540694255502674 37.25224057907265 5.449894653896758 2 -1 0
1625 542 2 -0.35 6.637981484984089 33.75265730367245 8.313415932144682 0 -1 1
1399 467 1 0.7 1.5862356164680156 33.80976447531746 7.490113147263276 -1 0 1
6706 2236 1 0.7 7.97933708597666 37.704676419303524 7.542077658741962 2 -3 0
6708 2236 2 -0.35 8.272313549430638 36.921671982543764 8.327004829458467 2 -3 0
6632 2211 2 -0.35 0.6230532898314434 35.20556060519907 2.643872214461835 0 -1 1
1400 467 2 -0.35 0.877390648234113 34.09216516636939 8.391693232627782 -1 0 1
6631 2211 1 0.7 0.5155404517376997 36.08626253342272 1.8926134602888873 0 -1 1
719 240 2 -0.35 7.5377280195014515 32.55274794046629 0.9897243479220437 -1 -2 1
6633 2211 2 -0.35 0.5316214769619622 37.03751523382056 1.233453787903905 0 -1 1
2707 903 1 0.7 14.386830437707568 30.342154873938014 3.0473048247934917 0 0 0
2709 903 2 -0.35 13.418931899973057 30.66879200164067 3.572080690315462 0 0 0
3542 1181 2 -0.35 18.033790652140794 30.17942569864548 4.065804628071241 1 -1 0
804 268 2 -0.35 19.6646169647186 30.2636760517351 0.49735227816119504 -1 -2 0
3485 1162 2 -0.35 10.914036652223887 30.58040063423215 8.060259248178768 3 -1 0
5618 1873 2 -0.35 17.510402576208726 39.31356302015891 4.1040164258262175 1 -2 0
4377 1459 2 -0.35 11.010247157177147 37.25873423281015 1.0410969382447701 -3 -3 1
5617 1873 1 0.7 18.485992158150793 39.6425102806709 3.6152874651546028 1 -2 0
609 203 2 -0.35 10.267493689267699 31.464448437345354 2.401655529420397 -7 -4 0
4375 1459 1 0.7 11.539374412879162 36.53110624439529 1.7417385192487398 -3 -3 1
5619 1873 2 -0.35 19.52667242940275 39.93760669021492 3.2114016419700735 1 -2 0
4376 1459 2 -0.35 11.915117113392935 35.65306700328142 2.408410255201563 -3 -3 1
4053 1351 2 -0.35 13.736416892882232 39.318069277869526 6.1700008207055905 2 -1 1
4221 1407 2 -0.35 14.032067419078484 32.33341864696636 7.04158074864589 1 -2 0
4219 1407 1 0.7 14.169665124329638 31.56613913365719 7.8541074384554594 1 -2 0
3541 1181 1 0.7 17.157224296771783 30.61680528170625 4.649960506039197 1 -1 0
3543 1181 2 -0.35 16.303281985582796 31.169732178079308 5.260157009852937 1 -1 0
6726 2242 2 -0.35 11.918851937791331 34.012365879176784 5.218980143243552 1 -4 0
6725 2242 2 -0.35 13.838052837075628 34.00358674808107 3.8834364309636706 1 -4 0
6724 2242 1 0.7 12.852004672455628 33.999970980770364 4.506333183686888 1 -4 0
1702 568 1 0.7 11.29331700877891 38.74107879847071 4.8517594836515 0 -3 0
1703 568 2 -0.35 10.770937574173686 39.135568258732 5.802567676488752 0 -3 0
803 268 2 -0.35 17.974571914815964 31.897298872944468 0.5244905958559783 -1 -2 0
6032 2011 2 -0.35 19.407258378353724 35.34783693329683 4.671226794633781 5 6 1
1704 568 2 -0.35 11.691033547782428 38.35901506136017 3.829612687174845 0 -3 0
6033 2011 2 -0.35 18.801620167842472 33.111826390450425 4.5889387558316175 5 6 1
6031 2011 1 0.7 19.095576923260197 34.236627579024216 4.626070424485204 5 6 1
2479 827 1 0.7 15.466880924900934 36.97522567331078 2.4929465798074735 0 -3 0
2881 961 1 0.7 19.769355398338003 36.735317582066756 1.0915520778532999 0 0 1
2480 827 2 -0.35 14.74369645771139 37.2645980747144 3.3432003971991793 0 -3 0
4590 1530 2 -0.35 16.266795499456975 35.82694742861515 5.645437727093476 0 1 1
2883 961 2 -0.35 18.95674054437091 37.34386522264175 1.6907173542675378 0 0 1
2481 827 2 -0.35 16.093013641831757 36.75078431368277 1.52151209116872 0 -3 0
4588 1530 1 0.7 15.180204718036245 35.70149350870322 6.033790485092582 0 1 1
4589 1530 2 -0.35 14.08053269825964 35.61039508998484 6.417660958148364 0 1 1
802 268 1 0.7 18.809918399879646 31.052971993883148 0.4845343587858745 -1 -2 0
3888 1296 2 -0.35 19.07201910516758 30.865061241497852 6.813554824047477 0 -2 0
5494 1832 1 0.7 18.748561200491366 35.50216723410551 8.400741632936535 1 -1 1
5496 1832 2 -0.35 18.41059728982068 35.119961542474876 7.34573965996433 1 -1 1
1783 595 1 0.7 11.795546928871074 31.86568253832066 0.3232719706755252 0 1 1
1784 595 2 -0.35 12.624195230910296 31.106196004085778 0.6245431402100269 0 1 1
5246 1749 2 -0.35 3.2001535267081698 7.812603143291148 8.743782617914347 2 -1 0
5245 1749 1 0.7 2.9903533533585187 6.901896730540357 9.389105871873442 2 -1 0
4014 1338 2 -0.35 8.771843093234079 5.607793713532066 8.834579637301427 0 -1 0
5247 1749 2 -0.35 2.7594846308526306 6.063162948597116 10.136529989761137 2 -1 0
6314 2105 2 -0.35 4.405609183238948 3.272910603542185 9.497225383862652 1 -1 1
4012 1338 1 0.7 8.657079763233305 5.883173176296573 9.947497040859703 0 -1 0
6313 2105 1 0.7 5.398961479336556 3.789546755642985 9.891083173265669 1 -1 1
5220 1740 2 -0.35 0.9517857181938716 7.604663616396733 13.210095643099978 3 5 1
5218 1740 1 0.7 1.166008051679603 7.884695334748958 14.307182439074882 3 5 1
5219 1740 2 -0.35 1.337377893243297 8.169839162582353 15.397080959660618 3 5 1
3948 1316 2 -0.35 7.086150727305776 7.011951596771957 15.596765952755788 0 -1 0
3946 1316 1 0.7 8.217680128752177 7.235106015384948 15.40244252899954 0 -1 0
3516 1172 2 -0.35 5.634152415663634 7.0779253466539505 11.198422455429348 2 -2 0
3514 1172 1 0.7 4.9958744655928635 7.685859411911253 11.949275674001234 2 -2 0
3515 1172 2 -0.35 4.373747778197703 8.177178863543677 12.78933236578557 2 -2 0
3947 1316 2 -0.35 9.365512992678159 7.42150098097722 15.309990175962753 0 -1 0
6315 2105 2 -0.35 6.4154530791864595 4.318879631137087 10.163552639647014 1 -1 1
3550 1184 1 0.7 3.7877314199653718 1.3197290005712936 12.850031176553067 1 -1 0
6246 2082 2 -0.35 7.529768733861624 4.999509207894855 13.47924956293715 0 1 0
6244 2082 1 0.7 6.678233835160604 4.211968494580352 13.492823171221625 0 1 0
3551 1184 2 -0.35 4.351150271459273 1.0402340942229635 11.859591173665752 1 -1 0
6245 2082 2 -0.35 5.900962263546242 3.3541037761749557 13.424752658167879 0 1 0
5740 1914 1 0.7 7.597442173114608 9.514549653723893 11.88074515429293 0 -1 1
5742 1914 2 -0.35 8.464965296930556 8.979614959503184 12.431535714566225 0 -1 1
4230 1410 2 -0.35 0.7647251744870109 3.1377064973061106 10.050029009672244 0 1 1
4228 1410 1 0.7 1.4906120643238963 3.2913082620716656 10.933098941507147 0 1 1
3552 1184 2 -0.35 3.3067373801523274 1.6722588746201896 13.843225012895696 1 -1 0
4179 1393 2 -0.35 3.8810435100452683 5.345537427436934 15.374973785644999 1 0 0
4013 1338 2 -0.35 8.449585776487405 6.246168079736281 11.027753490953204 0 -1 0
1238 413 2 -0.35 9.234303977398161 1.4545475316625414 13.939484542922491 -3 1 0
3884 1295 2 -0.35 9.198142850629072 2.6621288443610114 11.277799955917459 3 2 0
3883 1295 1 0.7 8.444816863699032 1.8418536405111863 11.027191635297003 3 2 0
4177 1393 1 0.7 2.935464364128633 4.770589379385176 15.793339290484493 1 0 0
1427 476 2 -0.35 9.807541498322117 8.77213144412529 9.639927852961398 0 0 1
1237 413 1 0.7 10.00802259476334 1.05593895143142 14.69290569737966 -3 1 0
2155 719 1 0.7 5.322038411044549 9.517594900527172 15.03872317070696 -12 -2 0
2157 719 2 -0.35 4.4044836279431445 9.62083766032169 15.744609556467552 -12 -2 0
3885 1295 2 -0.35 7.764524795058846 0.9325271068920431 10.833579496640874 3 2 0
4229 1410 2 -0.35 2.2346125416922993 3.3895807668765974 11.80330034630112 0 1 1
5741 1914 2 -0.35 6.734396173055752 9.967808545940109 11.220361081777598 0 -1 1
2156 719 2 -0.35 6.322761780869357 9.521511628065687 14.439792838333576 -12 -2 0
3770 1257 2 -0.35 9.153783646050446 4.500586525335734 15.989074781996482 1 0 0
3769 1257 1 0.7 10.165220635122623 4.210364452858101 16.52156091604675 1 0 0
4178 1393 2 -0.35 1.9500223562542431 4.306459333101532 16.171274996737495 1 0 0
5559 1853 2 -0.35 8.079803162233222 1.3794718620582733 16.85229762027113 3 -2 0
6771 2257 2 -0.35 3.569879228960555 0.010407950108998422 16.802110356407585 2 -1 0