ITEM: TIMESTEP
0
ITEM: NUMBER OF NODES
16
ITEM: BOX BOUNDS
0 40
0 40
0 240
ITEM: NODES
1 1 0 0 0
2 1 18.75 0 0
3 1 18.75 40 0
4 1 0 40 0
5 1 0 0 240
6 1 18.75 0 240
7 1 18.75 40 240
8 1 0 40 240
9 1 18.75 0 0
10 1 40 0 0
11 1 40 40 0
12 1 18.75 40 0
13 1 18.75 0 240
14 1 40 0 240
15 1 40 40 240
16 1 18.75 40 240
ITEM: TIMESTEP
0
ITEM: NUMBER OF CUBES
2
ITEM: CUBES
1 1 1 2 3 4 5 6 7 8
2 1 9 10 11 12 13 14 15 16
